     165
 i =        1, E =      -782.3037119168
  C         2.6591082353        0.6456190942        0.8399125076
  C         1.7141282914       -0.4337358235        0.2049445236
  C         2.0686872842       -0.8132395667       -1.3008318276
  O         1.0598924405       -0.2084680775       -2.2623545770
  C         1.3948160436        1.1768597560       -2.2897127534
  C         0.7142003967        2.2086878849       -1.5085558212
  C         1.0885174440        3.6199955728       -1.5842039914
  C         2.1429510946        4.1753698208       -2.4333209408
  C         2.7147639645        3.1311166085       -3.2354322372
  C         2.3977584420        1.7296625057       -3.1711202685
  C         3.2825834828        1.0307468801       -4.0992620095
  N         2.9047660725       -0.1815366730       -4.6420367543
  C         3.7090128622       -0.6524257297       -5.6752401400
  C         3.1962975341       -1.6840760152       -6.5814920508
  C         1.8545307458       -2.2019663071       -6.5809833702
  C         1.6924634621       -3.1215393320       -7.7026467088
  C         2.7501376439       -3.5081972130       -8.6380960137
  C         4.1295834619       -2.9857182309       -8.5736546135
  C         4.2549996004       -1.9716888596       -7.5238477739
  C         5.3562474730       -1.0610965703       -7.1794881619
  N         5.0060063844       -0.2605794638       -6.0656881290
 Dy         6.1956730171        1.3073875230       -5.2544919850
  N         4.1221017573        1.9921519615       -4.7660595226
  C         3.8707423666        3.2374714558       -4.1271100166
  N         4.3185727343        4.4948637679       -4.5282252575
  C         5.4738503816        4.5105129267       -5.2923044256
  N         6.4390237202        3.4765217599       -5.4514759890
  C         7.4913361808        4.0077319792       -6.2310731009
  N         8.5070010364        3.3645572601       -6.9271077542
  C         8.3436152817        2.0374516376       -7.3236617573
  N         7.2637822159        1.1856391905       -7.0367195542
  C         7.2872576944        0.0842670435       -7.9007399391
  N         6.4349454835       -0.9824837767       -8.0519929312
  C         8.3240501808        0.2967471631       -8.8954013043
  C         8.9657062749        1.5328917301       -8.5425887229
  C        10.0344197733        2.0935618292       -9.3333143515
  C        10.3406987380        1.3023777191      -10.5249120509
  C         9.6480840218        0.0473361033      -10.8158397320
  C         8.6028112729       -0.5678815884      -10.0022272074
  O        10.5293335154        3.3989646457       -9.0307741418
  C        11.9366063516        3.3677983498       -8.4830058844
  C        11.8619258646        3.1513421593       -6.9126781958
  C        11.4615334859        4.4943602832       -6.2116987802
  C        12.9413945379        2.3116923981       -9.1125899327
  C        13.4820955893        2.8415831601      -10.4881681309
  C         7.2445330918        5.4357077048       -6.5071600605
  C         5.9567403149        5.7432309375       -5.9320730099
  C         5.3684699269        7.0653813550       -6.0199434463
  C         6.2561467790        8.0884797122       -6.5850340012
  C         7.5630261807        7.7095413596       -7.1331199756
  C         8.1111085930        6.3518163065       -7.2036569299
  O         4.0792832014        7.3863556725       -5.4995375606
  C         3.1265017615        7.0175641519       -6.6346301318
  C         1.7673326108        7.4003434061       -5.9480117623
  C         1.4777903848        6.5506150580       -4.6700623430
  C         3.3097944370        7.9466168848       -7.9262696955
  C         4.1125366101        7.2707648429       -9.0983185163
  O         8.1971020561        1.6220964693       -4.5027455344
  C         9.4296045279        1.1026266424       -4.6343394011
  N        10.1932885077        0.9911562056       -3.4485361153
  C         9.5962408695        1.2354759750       -2.1012470223
  C        11.6162626121        0.5780200282       -3.5953116161
  O         5.1082004284        2.1577121958       -7.0171522814
  C         3.9322032096        2.0745519118       -7.6728209633
  N         3.9179320011        2.4503334389       -9.0390426036
  C         5.1760089191        2.8483963324       -9.7379307057
  C         2.6976501729        2.2461368540       -9.8608512071
  N         6.2736717252        1.8329309514       -3.0033150781
  C         5.9697984059        0.7085380116       -2.2371953079
  C         6.1004832152       -0.5869589836       -2.9399511054
  N         6.8306473788       -0.5131564573       -4.1346627937
  C         7.2980616146       -1.6443122710       -4.8095457041
  C         7.1498341107       -2.8957239258       -4.1048511047
  C         6.2820549492       -2.9978653076       -2.9342681169
  C         5.8142333589       -1.8254318061       -2.2436795470
  C         5.8264261876        0.6982733031       -0.7928509168
  C         5.8520124686        2.0048248302       -0.1999735111
  C         6.1574471410        3.1795897446       -1.0051891854
  C         6.3331360815        3.1022628195       -2.4366160297
  O         5.1353475578       -3.2724903788       -9.6046514385
  C         5.9571063283       -4.4533041933       -8.9686793207
  C         5.1543279302       -5.7187476499       -8.4161082474
  C         4.8731791089       -5.6836338843       -6.8735148302
  C         6.8273177807       -4.9694039010      -10.1937690537
  C         7.7968805358       -3.9207668062      -10.8232690083
  C         1.7884069329       -2.3443034304       -1.5045112822
  C         2.0599852931       -2.8220372350       -2.9697730431
  H         2.5558085356        0.5407215722        2.0245114791
  H         3.7755432343        0.4420212148        0.5101835207
  H         2.2870907134        1.7185409264        0.5052582261
  H         1.8179997702       -1.4373737368        0.8338979136
  H         0.5954100188       -0.0349218623        0.2560524299
  H         3.1863490870       -0.4837696570       -1.5223500526
  H        -0.1653513545        1.8320869751       -0.8228232031
  H         0.5127639222        4.4098266000       -0.9225624334
  H         2.5395333031        5.2903247581       -2.5074097705
  H         1.0586516937       -1.8646831242       -5.7677560350
  H         0.6188870540       -3.6062313826       -7.7958066025
  H         2.4900527541       -4.2544743896       -9.5115013000
  H        11.1398141067        1.7634454582      -11.2547770415
  H         9.9609848678       -0.5779039272      -11.7636833561
  H         8.0005491729       -1.5788033989      -10.1516447454
  H        12.2937370200        4.4554935242       -8.7613650451
  H        11.0651073357        2.3242916833       -6.6195653928
  H        12.9661066664        2.8827394646       -6.5693265883
  H        11.5311575309        4.3208240618       -5.0359742133
  H        12.2360216158        5.3453975722       -6.5035119582
  H        10.3503624899        4.7742801671       -6.5090205564
  H        13.8682811077        2.2862771217       -8.3689240246
  H        12.4711812687        1.2359604617       -9.2633435597
  H        13.7603018753        1.9029300735      -11.1600392947
  H        12.6474099627        3.4956855622      -11.0106039761
  H        14.4651416081        3.4869976711      -10.3289466533
  H         5.8476725343        9.2072297852       -6.5532501071
  H         8.2554398236        8.5459669517       -7.5975387200
  H         9.1278174927        5.9787756544       -7.6974835774
  H         3.2391225552        5.8813231370       -6.9597401541
  H         1.8446173828        8.5496641405       -5.6485160668
  H         0.9292626704        7.2106538582       -6.7623343375
  H         1.5291403532        5.4021747260       -4.9453583077
  H         2.2518529954        6.8488961630       -3.8274017344
  H         0.3753849139        6.8580867738       -4.3361285352
  H         2.1961438353        8.0909416197       -8.3252980249
  H         3.8207722352        8.9895389490       -7.6471365876
  H         4.0341966145        6.0893659025       -9.0504905300
  H         3.6451459488        7.6424334901      -10.1316375958
  H         5.2363265879        7.6362480151       -9.0394729240
  H         9.9522542252        0.7860460425       -5.6759577337
  H         9.3928046073        0.1755153398       -1.5807813434
  H        10.4002881112        1.8472574391       -1.4586994626
  H         8.5876626919        1.8497792064       -2.2525282956
  H        12.0727342312        0.4402949281       -2.5042801953
  H        11.6475953877       -0.4568391497       -4.1883533760
  H        12.1930893087        1.4367918452       -4.1927230608
  H         2.8443981639        1.8038928385       -7.2116117095
  H         5.9938008245        3.1377978422       -8.9206808125
  H         5.5840025388        1.9666801161      -10.4354237021
  H         4.9145934296        3.7938622214      -10.4233142645
  H         1.8165346796        2.1084271711       -9.0705507203
  H         2.5412818262        3.2217222507      -10.5307578045
  H         2.8235503445        1.2644686282      -10.5343014840
  H         7.9727426109       -1.4803667094       -5.7801683253
  H         7.6335710208       -3.8508302311       -4.5988164015
  H         6.0507730963       -4.0409964435       -2.4274917490
  H         5.1434187449       -1.8411154243       -1.2721272947
  H         5.6713114868       -0.2945230967       -0.1761969195
  H         5.6768150279        2.0801190250        0.9658349664
  H         6.1939545857        4.2536426032       -0.5178513732
  H         6.6212109955        4.0298495311       -3.1245312477
  H         6.6463552645       -3.9983643578       -8.1129780967
  H         4.1276163597       -5.8211552854       -9.0011257626
  H         5.8610348985       -6.6561221575       -8.6097981522
  H         4.7949829870       -6.8136221845       -6.4835018980
  H         5.7489689113       -5.0957223503       -6.3284316305
  H         3.8525036096       -5.0942521560       -6.7202708723
  H         7.4811553609       -5.8731043585       -9.7745196009
  H         6.1020159045       -5.3906379407      -11.0438865244
  H         8.3376097563       -3.3550682855       -9.9390251606
  H         8.5864353454       -4.5166884506      -11.4883210808
  H         7.1433426808       -3.2083948120      -11.5048617265
  H         2.5217265548       -2.9020966526       -0.7609544537
  H         0.6480177623       -2.5380315066       -1.2291676506
  H         2.0303834802       -4.0135246924       -2.9217189131
  H         1.1836198707       -2.4388752518       -3.6667546906
  H         3.1157165318       -2.4346465163       -3.3341377255
     165
 i =        2, E =      -782.5163844357
  C         2.6688737346        0.6685010271        0.8382591750
  C         1.7210701252       -0.4245754725        0.1993731503
  C         2.0550039656       -0.8590195379       -1.3020362872
  O         1.0226662866       -0.2098651263       -2.2590766160
  C         1.2974752300        1.2226444566       -2.2892987676
  C         0.6502316192        2.2448699645       -1.4365900556
  C         1.0290283679        3.6796645733       -1.5077492132
  C         2.0974062693        4.2011234488       -2.3993371619
  C         2.7434156128        3.1449611205       -3.1515413333
  C         2.4164674242        1.7248207044       -3.0770952557
  C         3.2161051589        1.0272511452       -4.1230692581
  N         2.8503610379       -0.2793874915       -4.5633609687
  C         3.6903197901       -0.6890020155       -5.6499712309
  C         3.1680705356       -1.7447351771       -6.5648519963
  C         1.8131763879       -2.2590160244       -6.5877202805
  C         1.6105382400       -3.1980494272       -7.7181085504
  C         2.6941559514       -3.6009288819       -8.6541328899
  C         4.0353465590       -2.9603577949       -8.6423960187
  C         4.2428532117       -2.0556944646       -7.5082105980
  C         5.3644391678       -1.1146180034       -7.2119793428
  N         5.0115030628       -0.3017396499       -6.0687407610
 Dy         6.0801917766        1.4285304561       -5.0286369061
  N         4.1024331408        1.9993417430       -4.7365240670
  C         3.8120526655        3.2857235378       -4.1844602111
  N         4.2858768583        4.6017221626       -4.4869512406
  C         5.4652587853        4.5745280523       -5.2836321705
  N         6.4759637542        3.5288426235       -5.3769769248
  C         7.5531145953        4.0110675841       -6.2096287369
  N         8.6143237096        3.4097305426       -6.9639101476
  C         8.3813812164        2.0554453668       -7.3513054125
  N         7.3066522345        1.1779996843       -6.9831345019
  C         7.2840959522        0.0774512455       -7.9176948091
  N         6.4896224322       -1.0965043697       -8.0894286515
  C         8.3777410185        0.2602201251       -8.9106903780
  C         9.0723309016        1.4881434767       -8.5409282922
  C        10.0697505170        2.1073070090       -9.4050714548
  C        10.4150432499        1.2807726795      -10.5931021311
  C         9.7215965122       -0.0008017088      -10.9140155664
  C         8.6470299163       -0.5763579815      -10.0627991205
  O        10.5194418987        3.4562927073       -9.0531721202
  C        11.9550528558        3.3840079997       -8.4747838753
  C        11.8527887491        3.1772890244       -6.9005441070
  C        11.4380887882        4.5188651858       -6.1897424329
  C        12.9332351486        2.3281559828       -9.1388105826
  C        13.4774579039        2.8362329071      -10.5306142007
  C         7.2862621625        5.4634313577       -6.5180912532
  C         5.9621085317        5.8003022777       -5.9928983593
  C         5.4389825527        7.1705061647       -5.9919453625
  C         6.2437418580        8.2486077100       -6.6453160876
  C         7.5721518953        7.8171545037       -7.1971715844
  C         8.1180773912        6.4233301144       -7.2165994732
  O         4.0933143373        7.4190633367       -5.4782734938
  C         3.0867260442        7.0527602731       -6.6074916623
  C         1.6976794894        7.3852922399       -5.9560087002
  C         1.4657673603        6.5301622850       -4.6507613631
  C         3.3407693940        7.9681626441       -7.9083324856
  C         4.1451139133        7.2780297474       -9.0915120223
  O         8.2304063539        1.7555783145       -4.5285518809
  C         9.4464630704        1.1266724860       -4.6545555723
  N        10.2178017578        0.9670853108       -3.4554416908
  C         9.5793162167        1.2434516193       -2.0936210498
  C        11.6747383722        0.5610363102       -3.6036161327
  O         5.1596540106        2.2047314616       -7.0920523490
  C         3.9083998231        2.0782581567       -7.6778054114
  N         3.9140733049        2.4399081153       -9.0688411654
  C         5.2116631531        2.8648764516       -9.7460878326
  C         2.6529724142        2.2440759472       -9.8781694256
  N         6.1999556477        1.8682558297       -2.9695745474
  C         5.9516511679        0.7096208331       -2.2017456159
  C         6.1403054180       -0.6237008046       -2.9123291338
  N         6.8411525959       -0.5303285347       -4.1420921851
  C         7.3623679561       -1.6796236646       -4.7833586743
  C         7.1227127477       -2.9926783472       -4.1508793353
  C         6.3016141118       -3.0852954111       -2.9039836296
  C         5.7419701579       -1.8784771117       -2.2656760612
  C         5.7572352978        0.7090239904       -0.7517428917
  C         5.8502424782        2.0376005893       -0.1252415151
  C         6.1300138343        3.2518860854       -0.9441693607
  C         6.3546376788        3.1529197588       -2.3997656760
  O         5.1137658080       -3.3204684410       -9.5695529685
  C         6.0124213150       -4.4857895733       -9.0130252060
  C         5.1533744853       -5.7071326011       -8.4231644002
  C         4.8720039892       -5.7613056404       -6.8605256628
  C         6.8721068488       -5.0171877876      -10.2184116798
  C         7.7918012125       -3.8887342575      -10.8211016952
  C         1.8255380301       -2.3978889764       -1.4981085278
  C         2.0730206839       -2.8354033200       -2.9941755953
  H         2.5657747869        0.5569405810        2.0571264373
  H         3.8187782288        0.4652379998        0.4998347909
  H         2.3087312706        1.7759982934        0.4782747414
  H         1.7762089038       -1.4697281089        0.8355960621
  H         0.5503460924       -0.0673740576        0.2589260428
  H         3.1916311698       -0.4710447996       -1.5738020190
  H        -0.2430012510        1.8202060608       -0.7427232995
  H         0.4296492154        4.4791010860       -0.8297094771
  H         2.5280277878        5.3405590367       -2.5272271143
  H         1.0311288644       -1.8577827113       -5.7277222461
  H         0.5092818762       -3.6778660604       -7.8467041670
  H         2.4668880638       -4.3309127108       -9.5924889902
  H        11.2309342452        1.7817312715      -11.3300553878
  H        10.0236292261       -0.6276931692      -11.9022643008
  H         7.9820071861       -1.6041900781      -10.1743291066
  H        12.3798220328        4.5113372389       -8.7179815401
  H        11.0670562751        2.2758441891       -6.6396614626
  H        12.9750668928        2.8289374521       -6.5540398519
  H        11.5160402919        4.3372957774       -4.9836147584
  H        12.2486268030        5.3753047509       -6.5178900623
  H        10.2946954148        4.7881096799       -6.5154108297
  H        13.8538259836        2.2377508533       -8.3346259011
  H        12.4527682833        1.2053039340       -9.2154727486
  H        13.7793113717        1.8728887635      -11.2140661364
  H        12.6186398534        3.5258064818      -11.0505531851
  H        14.4744880726        3.5171026149      -10.3345920852
  H         5.7521896796        9.3973099906       -6.5917344273
  H         8.3137914799        8.6598516158       -7.6474023142
  H         9.1644089899        5.9805696829       -7.6989641160
  H         3.2452783910        5.8713585858       -6.9256849071
  H         1.8281754236        8.5767616452       -5.6868402976
  H         0.8510645071        7.2329803761       -6.8149750604
  H         1.5446142061        5.3441493319       -4.9205087357
  H         2.2811860653        6.8389093609       -3.7990616565
  H         0.3382847463        6.8472731111       -4.2977687121
  H         2.1859963914        8.1462120812       -8.2886741262
  H         3.8132882694        9.0809076175       -7.6080520378
  H         4.0428642456        6.0587880506       -9.0456992389
  H         3.6501069413        7.6475213264      -10.1539430381
  H         5.3126668366        7.6167313122       -9.0422475860
  H        10.0182217688        0.7757610652       -5.7106720724
  H         9.3740197730        0.1473463769       -1.5543280493
  H        10.4126113279        1.8723019664       -1.4340886932
  H         8.5340844450        1.8654673980       -2.2601512001
  H        12.1037616108        0.4288377502       -2.4596756876
  H        11.6818871730       -0.5103946893       -4.2136516078
  H        12.2460361533        1.4666887255       -4.2207582954
  H         2.7988322477        1.7658404181       -7.1914261026
  H         6.0342497421        3.1339626764       -8.8691612301
  H         5.6031507644        1.9270098575      -10.4516182877
  H         4.9162808109        3.8355503876      -10.4501019841
  H         1.7439420037        2.0945233428       -9.0655405705
  H         2.5143824844        3.2543442729      -10.5694809253
  H         2.8168473385        1.2337192013      -10.5757428349
  H         7.9703924383       -1.4971807049       -5.8443893671
  H         7.6690192627       -3.9651566424       -4.6291899143
  H         6.0468734846       -4.1606054108       -2.3977269259
  H         5.1044926876       -1.8588719772       -1.2282989540
  H         5.6691761211       -0.3414181295       -0.1472911460
  H         5.6665313328        2.1138857098        1.0700827179
  H         6.2031654206        4.3570622860       -0.4530413867
  H         6.6146990191        4.0842708039       -3.1631067921
  H         6.6641715374       -3.9838831248       -8.0993589555
  H         4.1109027887       -5.8681978838       -9.0461114540
  H         5.8511496918       -6.6853658728       -8.6630103099
  H         4.8364788253       -6.9551269078       -6.4921371609
  H         5.7578339127       -5.1160865671       -6.3018064005
  H         3.8433790647       -5.1092426856       -6.6697060913
  H         7.5021929760       -5.9452130283       -9.7496392369
  H         6.0683937285       -5.4309803336      -11.0423343311
  H         8.3759683169       -3.3257218282       -9.9142792811
  H         8.6038013895       -4.5095431969      -11.4992132604
  H         7.1382760885       -3.1440448418      -11.5303319292
  H         2.5369688784       -2.9636676702       -0.6882136601
  H         0.6493849430       -2.5489976591       -1.1800082073
  H         2.0348756482       -4.0577637404       -2.9511189480
  H         1.1790247992       -2.4148724203       -3.7078105595
  H         3.1520322420       -2.4152741448       -3.3745567190
     165
 i =        3, E =      -782.6459760703
  C         2.6616709206        0.6747697646        0.8301060096
  C         1.7092532837       -0.4394926545        0.2056210592
  C         2.0566814612       -0.8487832796       -1.3002508623
  O         0.9675368301       -0.2180587049       -2.2637360874
  C         1.2664868573        1.2441154851       -2.2158129242
  C         0.5752173571        2.2707069862       -1.3851542794
  C         0.9606171509        3.7235257334       -1.4316365420
  C         2.0513120946        4.2215112828       -2.3360677939
  C         2.7375403476        3.1666911346       -3.0722391707
  C         2.3960899754        1.7367145415       -3.0012222721
  C         3.1578410496        1.0419277725       -4.1084933430
  N         2.8330873615       -0.3224657494       -4.5058870919
  C         3.6733695318       -0.7426752807       -5.6211570313
  C         3.1507882309       -1.8174479876       -6.5449588129
  C         1.7858410710       -2.3219225774       -6.6083380004
  C         1.5400808481       -3.2794428133       -7.7376217276
  C         2.6422579463       -3.6464483862       -8.6911715180
  C         4.0138463230       -3.0542556413       -8.6314859980
  C         4.2125889605       -2.1204507081       -7.5206726508
  C         5.3577389910       -1.1784183368       -7.2177984764
  N         5.0002176283       -0.3364394086       -6.0697464758
 Dy         6.1356094910        1.3260680581       -5.1231492477
  N         4.0073689971        2.0430614183       -4.8181392019
  C         3.7596477457        3.3427669723       -4.1823988090
  N         4.2689047769        4.6708614943       -4.4781957673
  C         5.4794332868        4.6487938450       -5.2784689814
  N         6.5034719577        3.5790018555       -5.3411606079
  C         7.5890683187        4.0581116780       -6.2103991024
  N         8.6713303956        3.4371241731       -6.9636328798
  C         8.4176807702        2.0662664635       -7.3673835255
  N         7.3612884893        1.1481773697       -6.9676251634
  C         7.3211375951        0.0315122933       -7.9204232463
  N         6.5095753759       -1.1639327444       -8.1026905926
  C         8.4427685964        0.2263196806       -8.9161502781
  C         9.1453907509        1.4644740266       -8.5491703838
  C        10.1025306071        2.0930921810       -9.4603915745
  C        10.4780967922        1.2770757826      -10.6654315546
  C         9.7944392070       -0.0298704929      -10.9872150506
  C         8.6972551166       -0.5709049368      -10.1127044605
  O        10.5369119851        3.4747344533       -9.1083342354
  C        11.9837562278        3.4046408425       -8.4695734388
  C        11.8465694086        3.1718445856       -6.8952694253
  C        11.4291393344        4.5178221871       -6.1757772287
  C        12.9285304063        2.3207769532       -9.1370733533
  C        13.4654517382        2.8253526991      -10.5443007722
  C         7.3072821279        5.5290640879       -6.5400312418
  C         5.9788574243        5.8891914558       -6.0112390828
  C         5.4523671752        7.2726419003       -6.0391711257
  C         6.2114762766        8.4243950105       -6.6847961803
  C         7.5577988266        7.9498933920       -7.2553137780
  C         8.1176523895        6.5306661932       -7.2283970366
  O         4.0922499865        7.4513508642       -5.4276196535
  C         3.1041482799        7.0760928832       -6.6137511963
  C         1.6970152221        7.3817934479       -5.9758217409
  C         1.4373340520        6.5310364658       -4.6600814989
  C         3.3540687537        8.0317370703       -7.8904234532
  C         4.1652137505        7.2994233955       -9.0655499501
  O         8.2764549017        1.8546943605       -4.5494329943
  C         9.4767522500        1.1750520914       -4.6701242438
  N        10.2290290912        0.9408565463       -3.4554645957
  C         9.5755904614        1.2429699399       -2.0801452170
  C        11.7104116766        0.5451697945       -3.6055425281
  O         5.1738949089        2.2420861060       -7.0882823654
  C         3.9199293747        2.0968269601       -7.6773892279
  N         3.8992805565        2.4376057728       -9.0849536878
  C         5.2186450896        2.8715537587       -9.7615172276
  C         2.6247976388        2.2406026319       -9.9085624829
  N         6.1891409309        1.8903971879       -2.8807991675
  C         5.9289250510        0.6984029198       -2.1421506963
  C         6.1403017891       -0.6480379572       -2.8863318410
  N         6.8933544649       -0.5421875313       -4.1104263575
  C         7.3751966588       -1.7229353146       -4.7705268109
  C         7.1234580200       -3.0712089284       -4.1624967227
  C         6.2885028706       -3.1653977090       -2.9016632693
  C         5.7260682438       -1.9263848683       -2.2747430463
  C         5.7281262463        0.7300317340       -0.6916079218
  C         5.8176781477        2.0764663980       -0.0522265943
  C         6.1238412858        3.3220869477       -0.8509482648
  C         6.3252422644        3.1958735560       -2.3236994804
  O         5.0891433622       -3.3244348976       -9.6189018008
  C         5.9607174310       -4.4968674363       -8.9816348373
  C         5.1545611677       -5.7824859278       -8.4471583721
  C         4.9048521682       -5.8864917955       -6.8652625199
  C         6.8533735250       -5.0133241060      -10.1781707313
  C         7.7928167608       -3.9088267493      -10.8242236802
  C         1.8459895107       -2.3965676482       -1.4836233615
  C         2.0861339986       -2.8611117778       -2.9830688147
  H         2.5822431962        0.5880905838        2.0688994489
  H         3.8346665267        0.4947364067        0.4984551107
  H         2.3392457350        1.8111341626        0.4575305009
  H         1.7573410295       -1.4929215425        0.8512493998
  H         0.5261488602       -0.0824776023        0.2498841197
  H         3.2012012291       -0.4563947514       -1.6355360688
  H        -0.3113436506        1.8331408408       -0.6649220772
  H         0.3575020115        4.5385523300       -0.7461983105
  H         2.4855289472        5.3734799468       -2.5356838176
  H         1.0189816379       -1.8783348616       -5.7263101611
  H         0.4166246869       -3.7441793936       -7.8893741334
  H         2.4350294879       -4.3950607754       -9.6376835142
  H        11.3122731240        1.7797284728      -11.4031930264
  H        10.0803945162       -0.6532159545      -12.0048290957
  H         7.9902098375       -1.5914236717      -10.2175241683
  H        12.4453549852        4.5532466764       -8.6818529380
  H        11.0542835941        2.2477421306       -6.6677158920
  H        12.9749530801        2.8001113003       -6.5362380131
  H        11.4916641975        4.3686047990       -4.9495808567
  H        12.2344132486        5.3981796675       -6.5193766129
  H        10.2712086914        4.7987149027       -6.5058056946
  H        13.8518201328        2.2081185922       -8.3203014756
  H        12.4146492179        1.1978673059       -9.1886881967
  H        13.7888954358        1.8704281395      -11.2581490521
  H        12.6115532695        3.5360063061      -11.0890314680
  H        14.4651638768        3.5360333546      -10.3559027732
  H         5.6567896030        9.6049915075       -6.6626857363
  H         8.3606629738        8.7652749233       -7.7042837562
  H         9.1787520779        6.0332262322       -7.6961330066
  H         3.2576344376        5.8578956376       -6.8891529406
  H         1.7806498438        8.5915230101       -5.7035007029
  H         0.8081197478        7.2466122770       -6.8189380510
  H         1.5566858439        5.3168177616       -4.8829774203
  H         2.2857339757        6.8278507745       -3.8090488486
  H         0.3101826347        6.8121361850       -4.2383179319
  H         2.1833960726        8.2028202986       -8.2744011134
  H         3.8388719444        9.1586890903       -7.5524347692
  H         4.0566471982        6.0583941542       -9.0310445006
  H         3.6745786721        7.6499690940      -10.1559189402
  H         5.3677884731        7.5887668520       -9.0435985918
  H        10.0526399342        0.7767280381       -5.7329958036
  H         9.3532830824        0.1325843019       -1.5319540836