     233
 i =        1, E =     -1123.1206039271
  C         8.2608867481        1.0659372109       -8.7921631291
  C         6.7937211282        0.5939055053       -8.7212708143
  O         6.0445210138        1.1083149554       -9.8543331873
  C         4.7401168056        0.6937705100       -9.8153924471
  C         3.7991734961        1.4757939138       -9.1073847678
  C         2.4656463569        1.0652369247       -9.2112517780
  C         2.0968176019       -0.0793198559       -9.9216774489
  C         2.9878043044       -0.8606249974      -10.6545818275
  C         4.3422447300       -0.4687322000      -10.5483526255
  O         5.2951356627       -1.2683627173      -11.1166036368
  C         5.4895622934       -0.9932433824      -12.5298380954
  C         6.5537387962       -1.9253616775      -13.1129786528
  C         0.7091764908       -0.2559501290       -9.6967934236
  N         0.0528095688       -1.2425305597      -10.2565798453
  C        -1.2135872875       -1.4625801628       -9.9246372675
  N        -1.9589860194       -0.8684912591       -8.9460653675
 Dy        -1.8586962772        1.3029720086       -7.9749938936
  N         0.2623207918        0.7023786480       -8.8526252650
  C         1.2773288576        1.5562369629       -8.6048873584
  N         1.4456164640        2.3915336786       -7.5598602486
  C         0.8604832702        2.0156831601       -6.4126202725
  C         1.6920161767        1.8606213415       -5.2619838537
  C         3.0348921377        2.1993047405       -5.0564004944
  C         3.6069611186        1.7604331018       -3.8425955039
  O         4.8550659297        2.1874933685       -3.4789422200
  C         5.9065000947        1.4599665412       -4.1698811843
  C         7.2695761032        1.9971374583       -3.7466019163
  C         2.8780872587        0.9367851168       -2.9274332149
  C         1.5298450875        0.5792128606       -3.1646486914
  C         0.9897301043        1.0426610330       -4.3656565425
  C        -0.2646703464        0.7491897244       -4.9818507203
  N        -1.1476495250       -0.0521146198       -4.4086946149
  C        -2.2101680246       -0.4622296118       -5.0900998310
  N        -2.4883716018       -0.3373151133       -6.4049324872
  C        -3.5926613507       -1.0971698652       -6.6542358912
  N        -3.9862479747       -1.6062939467       -7.8109153503
  C        -3.1114158308       -1.6148041250       -8.8169964228
  C        -3.1327220530       -2.6620911613       -9.7761097576
  C        -1.8962153074       -2.6108352685      -10.4288807270
  C        -1.4409449358       -3.6292511741      -11.2658341899
  C        -2.3180143155       -4.7319991314      -11.3987082957
  O        -1.9072157816       -5.7688608346      -12.1885061921
  C        -1.3029992197       -6.8128808304      -11.3631907306
  C        -0.9476225986       -8.0194008284      -12.2221561658
  C        -3.6128443120       -4.7504320844      -10.7831191732
  C        -4.0430685604       -3.7081346622       -9.9414247479
  O        -4.4242279291       -5.8429534945      -10.9221417590
  C        -5.2479847207       -5.7507239083      -12.1169873415
  C        -6.1660608549       -6.9670493643      -12.2141103215
  C        -4.0643044867       -1.6804411454       -5.4609262278
  C        -3.0636668330       -1.4441593328       -4.5150885865
  C        -2.9796576299       -2.1384529530       -3.3074201595
  C        -3.9863269908       -3.1155611297       -3.1239228219
  C        -5.0968562981       -3.2398306946       -4.0245190776
  C        -5.1533737196       -2.5192026968       -5.2297811604
  O        -6.0554210549       -4.1942250885       -3.8349260529
  C        -7.0711623806       -3.7827914276       -2.8815439811
  C        -8.0874851510       -4.9091982901       -2.6865743400
  O        -3.9095135274       -3.9219943549       -2.0172721267
  C        -3.2631791704       -5.1752243122       -2.4100985056
  C        -3.1322620514       -6.1294409917       -1.2265315502
  N        -0.2637129379        1.2316127757       -6.2600674365
  O         3.5471814718        0.3994360701       -1.8630661258
  C         3.2531438896        1.0646335999       -0.6064514455
  C         4.0567348418        0.4166024968        0.5176657492
  N        -3.9927300802        1.9455842476       -7.1558206851
  C        -5.1817080064        1.4078270884       -7.5519459941
  N        -5.6044316845        1.1833090517       -8.8013993602
  C        -4.7634343957        1.2031123401       -9.8225909370
  N        -3.3989841984        1.3103552860       -9.7884926368
  C        -2.9504678229        1.2530632563      -11.0782890685
  N        -1.7271340156        1.4961129861      -11.5710203186
  C        -0.9337058132        2.3512240919      -10.8889320285
  N        -1.2418415728        2.8715981182       -9.6568592778
  C        -0.5981606195        4.0549222943       -9.5478164634
  N        -0.5112856876        4.8473817057       -8.5109515191
  C        -0.9880344811        4.4826301033       -7.3327371062
  N        -1.8533449896        3.4558299604       -7.0336730671
  C        -2.2482325815        3.6290919865       -5.7250648364
  N        -3.3056035618        3.0749842507       -5.1325756833
  C        -4.1371841202        2.3384835643       -5.8488547101
  C        -5.4802949746        2.1245988609       -5.4334809281
  C        -6.1680497060        1.6456092902       -6.5589073271
  C        -7.5490651273        1.4420508063       -6.6366333217
  C        -8.2442373417        1.8417352384       -5.4821575890
  C        -7.5995131705        2.3463057234       -4.3340328153
  C        -6.1895694525        2.4178568009       -4.2481702221
  O        -5.5563983706        2.7925749364       -3.0897910398
  C        -5.3621677177        1.8394564105       -1.9841192770
  C        -4.0795234471        1.0241143826       -2.2793932743
  C        -2.7684739495        1.7530638108       -1.9486215277
  C        -6.6153941919        0.9640167417       -1.6913611848
  C        -7.7174427762        1.7017749907       -0.9036061634
  C        -1.5987136994        4.7682697142       -5.1570399406
  C        -0.8837368568        5.3488803853       -6.2137427584
  C        -0.2010585169        6.5717103833       -6.0883183190
  C        -0.1979549143        7.1294461768       -4.7836310065
  C        -0.8949459136        6.5030307466       -3.7269513457
  C        -1.6605032379        5.3253746438       -3.8762316596
  O         0.2901446777        7.1009936128       -7.2463553913
  C         1.5163055312        7.8800423804       -7.1926121779
  C         2.6978233975        6.9088159125       -7.4382686683
  C         3.0521359187        5.9729574319       -6.2673543364
  C         1.3907848108        8.9428894261       -8.3018179650
  C         0.1710956082        9.8730687610       -8.2087098885
  C        -0.0881520099        4.4501986435      -10.8072261231
  C        -0.2376674395        3.3363399143      -11.6464240964
  C         0.1963379444        3.3994596277      -12.9887371884
  C         0.7556885737        4.6313802205      -13.4045970749
  C         0.9212850135        5.7144286495      -12.5156945383
  C         0.5313711479        5.6540740065      -11.1638966619
  O         0.1406744660        2.3165455793      -13.8194182833
  C         1.2176002962        1.3473897516      -13.5841034137
  C         0.8145302736        0.1216775770      -14.4242633961
  C        -0.4612899532       -0.6206408142      -14.0035250596
  C         2.5971477770        1.9357090671      -14.0048467691
  C         3.4439226289        2.5363760857      -12.8699867258
  C        -4.0565548337        1.3292606776      -11.9819839883
  C        -5.2043831572        1.3223855357      -11.1756328373
  C        -6.4964787485        1.4431254573      -11.7228781051
  C        -6.5584633683        1.5465352024      -13.1433271785
  C        -5.3842968928        1.5661323952      -13.9252159261
  C        -4.0868918148        1.4672346063      -13.3758295027
  O        -7.5206096519        1.4495190972      -10.8254605902
  C        -8.8400829222        1.0384439356      -11.2878286012
  C        -9.1828666698       -0.2092940464      -10.4475768314
  C        -8.2300075576       -1.4091996428      -10.5998533189
  C        -9.8097399189        2.2094418316      -11.0603536121
  C        -9.4338394269        3.5187984978      -11.7762897364
  H         8.6728373779        1.2056049003       -7.7840213108
  H         8.8733666830        0.3354575906       -9.3314293927
  H         8.2842258757        2.0276991909       -9.3180078664
  H         6.7433303655       -0.5117137993       -8.7157486967
  H         6.3181383302        0.9396776278       -7.7827663564
  H         4.0720639730        2.3759540058       -8.5548702009
  H         2.6402245648       -1.7321635684      -11.2110771121
  H         4.5311220701       -1.1287293589      -13.0681549857
  H         5.7822753020        0.0660427989      -12.6505564473
  H         7.0911700589       -2.3799974253      -12.2724412672
  H         6.0964580504       -2.7104627811      -13.7242298123
  H         7.2652031524       -1.3561029227      -13.7237636815
  H         3.5634240063        2.8456946744       -5.7573446988
  H         5.8121024964        0.3872238382       -3.9217555537
  H         5.7815935880        1.5609600000       -5.2663343444
  H         7.3230893012        1.9983078600       -2.6516845144
  H         8.0637155800        1.3446768752       -4.1372721950
  H         7.4094529505        3.0123782076       -4.1344768700
  H         0.9390058739       -0.0460705331       -2.4937779378
  H        -0.4675835329       -3.5720736796      -11.7545530935
  H        -0.3875071796       -6.3992794895      -10.8970472615
  H        -1.9888639977       -7.0953473941      -10.5436734425
  H        -0.7134076148       -8.8756659693      -11.5737248153
  H        -1.8183298295       -8.2706103248      -12.8386575825
  H        -0.0811285534       -7.7957379330      -12.8535629616
  H        -5.0015679181       -3.7059869206       -9.4229385804
  H        -5.8347233785       -4.8134190331      -12.0973586039
  H        -4.5772532104       -5.7049048894      -12.9955954569
  H        -6.4286097457       -7.2840560444      -11.1979521859
  H        -7.0861242666       -6.6984900597      -12.7502372699
  H        -5.6674346682       -7.7845760521      -12.7458486494
  H        -2.1667182935       -1.9574519916       -2.6032820953
  H        -5.9573264060       -2.6160431876       -5.9587724276
  H        -6.5874631233       -3.5129354583       -1.9245128188
  H        -7.5727210749       -2.8696802958       -3.2572257153
  H        -8.2465645293       -5.1019547877       -1.6194838213
  H        -9.0427690393       -4.6606394274       -3.1610529614
  H        -7.6700703973       -5.8089039937       -3.1543468918
  H        -3.8503284853       -5.6327160882       -3.2269931063
  H        -2.2585542083       -4.9445263478       -2.8140951265
  H        -3.1614433404       -7.1654784848       -1.5928538717
  H        -2.1887063912       -5.9712817650       -0.6937583665
  H        -3.9831124293       -5.9743801721       -0.5540818529
  H         3.5289741993        2.1312708152       -0.7043853983
  H         2.1685203559        1.0198886083       -0.3930818960
  H         3.9692491800       -0.6723447545        0.4272984198
  H         5.1083100068        0.7177425297        0.4530918737
  H         3.6528050030        0.7273343493        1.4911476353
  H        -7.9994966083        1.0145549470       -7.5331283441
  H        -9.3280306526        1.7503294790       -5.4797473365
  H        -8.1641546258        2.7004977804       -3.4721840911
  H        -5.2004364498        2.4979802749       -1.1308272680
  H        -4.1289649011        0.0967097440       -1.6771509551
  H        -4.0634355418        0.6923476854       -3.3357904638
  H        -2.6419270805        1.8126176781       -0.8605265657
  H        -1.9174289638        1.2032145499       -2.3771211138
  H        -2.8058154709        2.7548825375       -2.3922850923
  H        -7.0382182602        0.5090128301       -2.6070787734
  H        -6.2571072266        0.1239666112       -1.0680369333
  H        -7.5752439050        1.5917584627        0.1789088078
  H        -7.7024264122        2.7668866748       -1.1628882579
  H        -8.7013369010        1.2843216757       -1.1564255563
  H         0.3181907858        8.0712365644       -4.6117821347
  H        -0.8790867378        6.9541659676       -2.7352796544
  H        -2.2495327297        4.8477516504       -3.0928788914
  H         1.6474662891        8.3541670641       -6.2127421953
  H         2.4906672370        6.3111301540       -8.3453227004
  H         3.5782556979        7.5347443499       -7.6703434268
  H         2.9677283958        4.9261676664       -6.5839763695
  H         4.0744376680        6.1555496366       -5.9137812753
  H         2.3600190536        6.1443545170       -5.4339642544
  H         2.3179189154        9.5443715084       -8.2749379488
  H         1.3897804689        8.4393547227       -9.2890932522
  H        -0.0567581681       10.0672634193       -7.1541099290
  H         0.3881763029       10.8279331732       -8.7062715476
  H        -0.6913784115        9.4087119726       -8.6995583525
  H         1.0946913405        4.6929783692      -14.4379182672
  H         1.3851475322        6.6333221407      -12.8681115064
  H         0.6462476872        6.4595754228      -10.4357324397
  H         1.2645893810        1.0872240383      -12.5170802133
  H         0.7285757080        0.4368081103      -15.4840595802
  H         1.6680507963       -0.5811125011      -14.3941254753
  H        -0.5048176773       -0.6574159807      -12.9085711894
  H        -1.3351971229       -0.0899520954      -14.3979305816
  H        -0.4542233093       -1.6414407855      -14.4115531576
  H         3.1795446567        1.1206122226      -14.4732899300
  H         2.4383071504        2.6937431648      -14.7934310889
  H         3.8955629160        1.7408543343      -12.2652120037
  H         4.2535354470        3.1510962477      -13.2880379474
  H         2.8192928413        3.1748488107      -12.2339580828
  H        -7.5259296716        1.6740232005      -13.6249505158
  H        -5.4681803216        1.6597415756      -15.0095191568
  H        -3.1642074563        1.4727288976      -13.9585983244
  H        -8.8056935916        0.7448484097      -12.3431816102
  H        -9.2539297501        0.0850859583       -9.3835647300
  H       -10.2053037792       -0.5196090736      -10.7362426686
  H        -7.9236718038       -1.7776337976       -9.6127276161
  H        -8.7142326034       -2.2254472924      -11.1476046419
  H        -7.3357928532       -1.0814381651      -11.1421357579
  H       -10.8006209843        1.8648477025      -11.4053675288
  H        -9.8918674887        2.3850356190       -9.9725957274
  H        -9.2022259172        4.2962479145      -11.0394175254
  H        -8.5534866806        3.3646291398      -12.4105788775
  H       -10.2670167538        3.8672831283      -12.3971036245
     233
 i =        2, E =     -1123.1704968152
  C         8.2541011128        1.0686741229       -8.8067208199
  C         6.8151159862        0.5860079115       -8.7037387111
  O         6.0726564141        1.0925631150       -9.8569808218
  C         4.7626150887        0.6960138377       -9.8314478698
  C         3.8328023995        1.4919062270       -9.1284743172
  C         2.4995302435        1.1204854045       -9.2898580921
  C         2.1299997228       -0.0688144577       -9.9572261990
  C         3.0157728246       -0.8697510074      -10.6582749433
  C         4.3704196580       -0.4885543206      -10.5477996331
  O         5.3389714529       -1.2576265444      -11.1268221790
  C         5.4929312735       -0.9876308303      -12.5560519143
  C         6.5555605098       -1.9328119949      -13.1038805069
  C         0.7124468113       -0.2616166615       -9.7122796828
  N         0.0540369285       -1.2521289326      -10.3147667831
  C        -1.1954686783       -1.5101037326       -9.8999157215
  N        -1.9336377423       -0.8945554935       -8.9266490178
 Dy        -1.8646572448        1.2952628553       -7.9994270353
  N         0.2470390005        0.7171089898       -8.8600245060
  C         1.3125519040        1.5135580779       -8.5411538087
  N         1.4773150776        2.4216801516       -7.5460771534
  C         0.9013069853        1.9338343125       -6.4289854318
  C         1.7013584437        1.9319196245       -5.2059161906
  C         3.0509104241        2.2362553975       -5.0281697652
  C         3.6190360161        1.7737964604       -3.8222179159
  O         4.8772802580        2.1729194481       -3.4682792936
  C         5.9272565981        1.4466245754       -4.1781792346
  C         7.2636494555        2.0085848157       -3.7377297100
  C         2.9018285809        0.9126533174       -2.9222455398
  C         1.5415711230        0.5907856705       -3.1374033914
  C         0.9929874122        1.1013476681       -4.3085259380
  C        -0.2269340001        0.6963078169       -5.0014422751
  N        -1.1483166958       -0.0223022814       -4.3563631877
  C        -2.1407865497       -0.5402110101       -5.0880747514
  N        -2.4821621970       -0.3213453286       -6.3950892637
  C        -3.5943844677       -1.1072700203       -6.6580289752
  N        -4.0593431813       -1.5515696622       -7.8525333174
  C        -3.1172280950       -1.6185046829       -8.8251913039
  C        -3.1660063277       -2.6736344311       -9.8143704280
  C        -1.9246668333       -2.6256801560      -10.4840691294
  C        -1.4495501939       -3.6452590491      -11.2952537843
  C        -2.3307007415       -4.7397556942      -11.4445885322
  O        -1.9089467235       -5.8013041509      -12.1914444666
  C        -1.2892704138       -6.8372206055      -11.3511489039
  C        -0.9544391117       -8.0166761425      -12.2388933313
  C        -3.6064117424       -4.7902240391      -10.7655747542
  C        -4.0643228427       -3.7239484072       -9.9646982991
  O        -4.4270957138       -5.8695272900      -10.9408759168
  C        -5.2588114551       -5.7550211112      -12.1415061197
  C        -6.1619813566       -6.9752724667      -12.2050362155
  C        -4.1098812672       -1.6746512539       -5.4311521392
  C        -3.1271978800       -1.4102141516       -4.4506878087
  C        -3.0001724903       -2.1512364580       -3.2813724486
  C        -4.0196376242       -3.1050673348       -3.0758164273
  C        -5.0876197687       -3.2952672875       -4.0354801749
  C        -5.1754278127       -2.5358275879       -5.2176401247
  O        -6.0629443891       -4.2169094285       -3.7922619761
  C        -7.0933833597       -3.7720743245       -2.8544376964
  C        -8.0862465922       -4.9177850321       -2.6927800104
  O        -3.8978004406       -3.9477958341       -2.0039884530
  C        -3.2543364867       -5.2067590955       -2.4165645955
  C        -3.1395676770       -6.1234151161       -1.2110959990
  N        -0.2910647128        1.2850929925       -6.2397694273
  O         3.5758884102        0.4189551473       -1.8441639528
  C         3.2504832802        1.0792193813       -0.5810069477
  C         4.0621940579        0.4059379790        0.5090962897
  N        -3.9945002371        1.9166238560       -7.1542083329
  C        -5.2277966775        1.5431103064       -7.6041624203
  N        -5.6149838482        1.1218400822       -8.8115645012
  C        -4.7665859086        1.2631020406       -9.8230293081
  N        -3.3847641655        1.2300659259       -9.7952966852
  C        -2.9449649342        1.3200580443      -11.0843204524
  N        -1.7077526257        1.4540291687      -11.5949210104
  C        -1.0725047203        2.4380299535      -10.9443200271
  N        -1.1996188717        2.8367131356       -9.6430486935
  C        -0.6645866129        4.0929640133       -9.5568607739
  N        -0.4418446572        4.8617432809       -8.4877226267
  C        -1.0768155047        4.5556615139       -7.3512150663
  N        -1.8388749408        3.4553707052       -7.0396742833
  C        -2.2878301039        3.6660800543       -5.7550246244
  N        -3.2566952311        3.0079112184       -5.0666325696
  C        -4.1621102223        2.3770379716       -5.8548581167
  C        -5.5168870077        2.1081515615       -5.3953216214
  C        -6.1942837383        1.5476029140       -6.5093508901
  C        -7.5787062888        1.4335333839       -6.6071298853
  C        -8.2917287722        1.8504424084       -5.4673393718
  C        -7.6229615985        2.3413395589       -4.3251285446
  C        -6.2104624567        2.4045214550       -4.2070933374
  O        -5.5801545196        2.8295829211       -3.0734775747
  C        -5.3654566611        1.8372879324       -1.9923841937
  C        -4.0866639753        1.0201295081       -2.2637382101
  C        -2.7840021880        1.7601701284       -1.9471381856
  C        -6.6047364689        0.9706939917       -1.6823083183
  C        -7.7159348072        1.7089304966       -0.9155515143
  C        -1.5905757530        4.7790073009       -5.1289751605
  C        -0.8489492856        5.3576184969       -6.1772686665
  C        -0.2079274670        6.5968301388       -6.0597247397
  C        -0.1892525223        7.1545444494       -4.7531244266
  C        -0.8910319293        6.5286610378       -3.7004224820
  C        -1.6482699483        5.3430716217       -3.8601454383
  O         0.3127313712        7.1144564304       -7.1899750170
  C         1.5426078349        7.8969411647       -7.2105624949
  C         2.7084651830        6.9155479829       -7.4447046853
  C         3.0407107367        5.9779298868       -6.2677241155
  C         1.4051620326        8.9521762136       -8.3092416695
  C         0.1739646389        9.8600187456       -8.1970782185
  C        -0.0142470861        4.4438632973      -10.8127012491
  C        -0.1323597179        3.3111222953      -11.6527603230
  C         0.2264732240        3.4179892126      -13.0130960662
  C         0.7449351729        4.6680809192      -13.4345701067
  C         0.9386762111        5.7455408937      -12.5455613770
  C         0.5272347252        5.6671616387      -11.1994984422
  O         0.1782942573        2.3403692748      -13.8417407980
  C         1.2220271115        1.3200234773      -13.6015852811
  C         0.8310177279        0.1049554098      -14.4374982164
  C        -0.4533726454       -0.6037604877      -13.9989495388
  C         2.5894878115        1.9315337078      -14.0083629670
  C         3.4280115393        2.5353622510      -12.8743670822
  C        -4.0640378239        1.2648973756      -12.0154581247
  C        -5.2149557348        1.2943955227      -11.2008240845
  C        -6.5000955868        1.4308131089      -11.7489800453
  C        -6.5750216644        1.5539291154      -13.1675147157
  C        -5.4018970762        1.5636997367      -13.9464324057
  C        -4.1029423251        1.4487566701      -13.3959023251
  O        -7.5293079719        1.4581640641      -10.8858132999
  C        -8.8692793100        1.0233957734      -11.2784680808
  C        -9.2063263920       -0.2174389739      -10.4360400638
  C        -8.2284165653       -1.3952703802      -10.6077416922
  C        -9.8173420808        2.2019019608      -11.0588978994
  C        -9.4320152665        3.5109196619      -11.7746968545
  H         8.6700585278        1.1985772647       -7.7924833729
  H         8.8864816699        0.3455577850       -9.3425775213
  H         8.2991259819        2.0433234868       -9.3175573620
  H         6.7269248914       -0.5199710863       -8.6966644836
  H         6.3066805206        0.9304594015       -7.7771394551
  H         4.0978049143        2.3835046129       -8.5567705393
  H         2.6675278811       -1.7476390904      -11.2089626632
  H         4.5122584984       -1.0984598426      -13.0698065514
  H         5.7646901605        0.0823431766      -12.6479053228
  H         7.1151298201       -2.3952879258      -12.2765329340
  H         6.1145184362       -2.7277777735      -13.7226762198
  H         7.2680480459       -1.3700329543      -13.7271923847
  H         3.5882299124        2.8486416787       -5.7546025990
  H         5.8033573553        0.3720122495       -3.9383268809
  H         5.7670458396        1.5369847982       -5.2763992191
  H         7.3414912592        2.0063350341       -2.6394006799
  H         8.0573360784        1.3514506299       -4.1367464409
  H         7.4263785118        3.0271612530       -4.1225408826
  H         0.9606795302       -0.0659247440       -2.4825588180
  H        -0.4592908613       -3.5997017761      -11.7582823214
  H        -0.3940844714       -6.3894500622      -10.8660923529
  H        -1.9933091829       -7.0824138805      -10.5316191026
  H        -0.7102525117       -8.8686421477      -11.5799511070
  H        -1.8209063090       -8.2948827820      -12.8583800866
  H        -0.0812844558       -7.8095905112      -12.8756535269
  H        -5.0127520827       -3.7348162220       -9.4212530628
  H        -5.8191346537       -4.7970847503      -12.0990454972
  H        -4.5763917395       -5.6701756318      -13.0134642665
  H        -6.4485143436       -7.3006134179      -11.1923451294
  H        -7.0816491690       -6.7086372632      -12.7525583505
  H        -5.6765409763       -7.8076499380      -12.7356204569
  H        -2.1664387142       -1.9866072850       -2.5905026604
  H        -5.9707591045       -2.6527304150       -5.9575353637
  H        -6.5726581245       -3.4921507538       -1.9185489990
  H        -7.5563879937       -2.8426387637       -3.2491643584
  H        -8.2594413529       -5.1130437911       -1.6235541814
  H        -9.0529923122       -4.6830002381       -3.1620295309
  H        -7.6844035170       -5.8355649680       -3.1494161338
  H        -3.8491472417       -5.6287949645       -3.2499919562
  H        -2.2653151244       -4.9400374150       -2.8498242650
  H        -3.1568028592       -7.1620690917       -1.5848073661
  H        -2.1950216917       -5.9726434765       -0.6669619365
  H        -3.9933903074       -5.9901906813       -0.5296649616
  H         3.5018021042        2.1522887501       -0.7058087921
  H         2.1558802787        1.0349191201       -0.4022123370
  H         3.9777833991       -0.6905274882        0.4449341285
  H         5.1213403607        0.7016030592        0.4606475450
  H         3.6594441860        0.7281261675        1.4850531175
  H        -8.0101187071        1.0317525798       -7.5300463297
  H        -9.3750804425        1.7580111080       -5.4648660406
  H        -8.1860787494        2.6877982977       -3.4608645240
  H        -5.1802885178        2.4962097890       -1.1288583932
  H        -4.1355000341        0.0642972728       -1.6967780107
  H        -4.0961157812        0.6735231176       -3.3191093394
  H        -2.6284402691        1.8353037252       -0.8577486592
  H        -1.9177829371        1.2148762919       -2.3654716535
  H        -2.7830847406        2.7701477183       -2.3880372670
  H        -7.0003824643        0.4827922458       -2.6022409974
  H        -6.2537307461        0.0916177053       -1.0988852617
  H        -7.5789923239        1.6123245614        0.1748487016
  H        -7.7313436186        2.7873848949       -1.1472343483
  H        -8.7139189149        1.2958432426       -1.1424079457
  H         0.3261043211        8.0971513927       -4.5895641466
  H        -0.8668135635        6.9931530468       -2.7172055511
  H        -2.2427574644        4.8683952266       -3.0766890257
  H         1.6370650938        8.3733943142       -6.2187976019
  H         2.4969086664        6.3434326839       -8.3715053204
  H         3.5788213683        7.5469957112       -7.7111195057
  H         2.9643556890        4.9180640117       -6.5627776802
  H         4.0659495925        6.1453248798       -5.8981289272
  H         2.3729523532        6.1164662657       -5.3994237556
  H         2.3474624826        9.5327229712       -8.2903149687
  H         1.4284299822        8.4380282164       -9.2945743409
  H        -0.0851008155       10.0937357371       -7.1499579273
  H         0.3737081710       10.8213465957       -8.7016282206
  H        -0.7144372689        9.4219845082       -8.6797483857
  H         1.1041692859        4.7078583508      -14.4613844428
  H         1.4078170360        6.6585260999      -12.9040839921
  H         0.6442725878        6.4600316154      -10.4537415746
  H         1.2379539632        1.0730120180      -12.5191733317
  H         0.7660515792        0.4333272719      -15.4957913854
  H         1.6969679620       -0.5831884833      -14.4114124254
  H        -0.5347661652       -0.6770833922      -12.9009311637
  H        -1.3577763925       -0.0995945463      -14.3753774019
  H        -0.4654569203       -1.6300100462      -14.4076696790
  H         3.1718790685        1.1327199144      -14.5139588429
  H         2.4379899870        2.6660204887      -14.8279540784
  H         3.8934052698        1.7554156276      -12.2484224456
  H         4.2544100351        3.1487172128      -13.2751832107
  H         2.8418078472        3.1901857992      -12.2068143014
  H        -7.5416688675        1.6727063002      -13.6504307236
  H        -5.4932944780        1.6691212433      -15.0265629299
  H        -3.1724231599        1.4782896119      -13.9682765729
  H        -8.8021743457        0.7549322558      -12.3462876917
  H        -9.2820582937        0.1054993010       -9.3797770952
  H       -10.2400095733       -0.4992305459      -10.7169866656
  H        -7.9114526967       -1.7902242826       -9.6279640033
  H        -8.6923045173       -2.2328324334      -11.1528668993