     165
 i =        1, E =      -790.1471002160
  C         2.6344671078        0.6301095007        0.8589464937
  C         1.7349950750       -0.4286516805        0.2030499040
  C         2.0310200792       -0.7928379087       -1.2820761506
  O         1.1391029016       -0.0958210991       -2.2182052186
  C         1.4268004994        1.2395647369       -2.3147711990
  C         0.7453845002        2.2268586858       -1.5644119360
  C         1.1122768591        3.5881329593       -1.6190304767
  C         2.1435616942        4.0822351088       -2.4444607112
  C         2.7285182957        3.1093202579       -3.2588335881
  C         2.3990384302        1.7346289362       -3.2076107617
  C         3.2456254049        1.0715919975       -4.1373139211
  N         2.9894014370       -0.0968542800       -4.7096233958
  C         3.6986765634       -0.6170942136       -5.7275824053
  C         3.2174661326       -1.6533205999       -6.5880895182
  C         1.9288129968       -2.1976047447       -6.6302055910
  C         1.7354087252       -3.0934982627       -7.6976637631
  C         2.7440361723       -3.4478224973       -8.6195733604
  C         4.0685826024       -2.9206761614       -8.5270274240
  C         4.2573408767       -1.9415229321       -7.5114380369
  C         5.3131216660       -1.0221263045       -7.2112165553
  N         4.9808480138       -0.3247439615       -6.0821088846
 Dy         6.1754842806        1.3742401609       -5.1831106194
  N         4.0540216202        2.0157231678       -4.7297097889
  C         3.8664064632        3.2265520385       -4.1142118526
  N         4.3709328330        4.3845341560       -4.5719751636
  C         5.4703457728        4.5009094734       -5.3226375935
  N         6.4448066536        3.5478386732       -5.4901049169
  C         7.4445351278        4.0147961815       -6.2817314759
  N         8.3605223739        3.3169080850       -6.9673262337
  C         8.2699344108        2.0399215643       -7.3753540658
  N         7.2795729940        1.1700489090       -7.0797441483
  C         7.2811163131        0.1131219827       -7.9107760049
  N         6.4027676475       -0.8789084709       -7.9764760340
  C         8.2961016740        0.3231705037       -8.8733759278
  C         8.9294635105        1.5385936623       -8.5308538024
  C         9.9697842560        2.0498137068       -9.3337991209
  C        10.2807477967        1.2914552776      -10.4899692374
  C         9.6332587941        0.0711948442      -10.7743835105
  C         8.6282160190       -0.4807650551       -9.9618025159
  O        10.5678752763        3.2452349109       -9.0128176635
  C        11.9400605457        3.3303967506       -8.4758760381
  C        11.8630023744        3.2002977734       -6.9339119584
  C        11.4779434765        4.4913376948       -6.1982164770
  C        12.9479798022        2.3485919437       -9.1337113673
  C        13.4940644444        2.8372161265      -10.4885315760
  C         7.2284961336        5.4118764141       -6.4905908515
  C         5.9632398664        5.7065996798       -5.9209839362
  C         5.4292372393        7.0059623563       -6.0255547701
  C         6.3041224552        7.9883179427       -6.5484965897
  C         7.5552437552        7.6606029179       -7.1091897195
  C         8.0338082811        6.3386453973       -7.1675064498
  O         4.1661797600        7.3485370273       -5.6309035300
  C         3.1419855104        7.0402029677       -6.6457890220
  C         1.8141755612        7.3745278788       -5.9359691247
  C         1.4643586599        6.5736046571       -4.6810567275
  C         3.3040909585        7.8931724694       -7.9468721571
  C         4.0994875228        7.2765122077       -9.1128404771
  O         8.3039111598        1.6005804548       -4.4916257232
  C         9.4575700445        1.1032718309       -4.5750117427
  N        10.1993475155        0.9788455178       -3.4587191572
  C         9.6366854318        1.2255914759       -2.1398632727
  C        11.5920641865        0.5803175437       -3.5925656206
  O         5.0045733185        2.1592956784       -7.0989995501
  C         3.9222748340        2.1083968798       -7.7348135251
  N         3.9104083234        2.4441831772       -9.0424856411
  C         5.1359747854        2.8357836164       -9.7270855000
  C         2.7201620872        2.2467443643       -9.8448260851
  N         6.2812511644        1.8062305123       -2.9045413457
  C         6.0133755365        0.6803513535       -2.2259306611
  C         6.1249307334       -0.5827213649       -2.9171414314
  N         6.8544995549       -0.5554733759       -4.0588239505
  C         7.2673512197       -1.6684369365       -4.7046184660
  C         7.1302617261       -2.8892191292       -4.0756428690
  C         6.3005550698       -2.9571936736       -2.9474905134
  C         5.8503722813       -1.8175970171       -2.3015470821
  C         5.8504833811        0.7489386365       -0.8312363914
  C         5.8753131990        2.0027191442       -0.2457386342
  C         6.1493074509        3.1509639400       -0.9927449034
  C         6.3340254611        3.0292902285       -2.3557846380
  O         5.0624736027       -3.3272718818       -9.4382488335
  C         5.9565509299       -4.4705704319       -8.9674218003
  C         5.1636943907       -5.6834452350       -8.3867218992
  C         4.8684970416       -5.6483679331       -6.8799679263
  C         6.8212876150       -4.9261905732      -10.1877105211
  C         7.7952319561       -3.9414991770      -10.8342340990
  C         1.7936940926       -2.2959812450       -1.5373323851
  C         2.0444036744       -2.8394556254       -2.9485626519
  H         2.5693092898        0.5592792363        1.9532251083
  H         3.6762968280        0.4549435193        0.5606622514
  H         2.3263761168        1.6375925410        0.5552179193
  H         1.7927255413       -1.3543613502        0.8039930743
  H         0.6808090059       -0.0966496297        0.2694433115
  H         3.0818971095       -0.5341045565       -1.4965826649
  H        -0.0590121878        1.8811820583       -0.9176388945
  H         0.5816956374        4.3106676884       -1.0029510201
  H         2.4896638679        5.1164725490       -2.4831042556
  H         1.1697588868       -1.9079591982       -5.8993247994
  H         0.7503011407       -3.5491823553       -7.7871724285
  H         2.5225828986       -4.1576621108       -9.4129627296
  H        11.0208865842        1.7079242709      -11.1703415964
  H         9.9241986535       -0.4987834913      -11.6528187986
  H         8.0874211836       -1.4134268405      -10.1319680047
  H        12.2237971627        4.3468212664       -8.7466463799
  H        11.1696398959        2.3875097889       -6.6374970940
  H        12.8657148381        2.8889804691       -6.5852814164
  H        11.5256003291        4.3408742981       -5.1099382173
  H        12.1776473160        5.2916846911       -6.4688135130
  H        10.4526724910        4.7633386921       -6.4722928729
  H        13.7969786533        2.2680307026       -8.4290433550
  H        12.5377633460        1.3244513260       -9.2261677735
  H        13.7501783867        1.9787627102      -11.1226196935
  H        12.7286766500        3.4430013366      -10.9873148006
  H        14.3998964556        3.4410093860      -10.3517669284
  H         5.9346133207        9.0123243543       -6.5409563262
  H         8.1697705456        8.4478068449       -7.5396407028
  H         8.9750999728        6.0355765254       -7.6296636441
  H         3.2083366119        5.9794152108       -6.9315275413
  H         1.8204125107        8.4557610880       -5.6897953820
  H         1.0067429591        7.2516524819       -6.6822346882
  H         1.5079018866        5.5048893890       -4.9222327451
  H         2.1799004004        6.8272378212       -3.8907228621
  H         0.4485175420        6.8312378854       -4.3495653958
  H         2.2783142753        8.0974830668       -8.3041916556
  H         3.7310781226        8.8806594149       -7.6848476583
  H         4.0423609017        6.1800923441       -9.0730848989
  H         3.6842558694        7.6143721733      -10.0733521139
  H         5.1449122163        7.6028214138       -9.0705771969
  H         9.9083128459        0.8047101332       -5.5376870957
  H         9.4226360547        0.2748384961       -1.6291649743
  H        10.3353137290        1.7935167849       -1.5133793238
  H         8.7062538611        1.7964219189       -2.2287837407
  H        12.0337184787        0.4522614909       -2.5997574384
  H        11.6486855014       -0.3705501287       -4.1325958238
  H        12.1457857566        1.3591726763       -4.1296827052
  H         2.9440975160        1.8467161771       -7.2887704742
  H         5.9130246376        3.1236080238       -9.0094661190
  H         5.5409252358        2.0500869348      -10.3805247503
  H         4.9334843149        3.7067464001      -10.3651853974
  H         1.8884560556        2.1227820387       -9.1428159520
  H         2.5561349100        3.1343879740      -10.4668454811
  H         2.8142938879        1.3515296599      -10.4732962191
  H         7.8692375973       -1.4779295624       -5.6084509206
  H         7.5819634941       -3.7589542966       -4.5462915232
  H         6.0837154821       -3.9169087691       -2.4856587314
  H         5.2365733174       -1.8390637058       -1.3983849577
  H         5.7045800122       -0.1664299601       -0.2558989145
  H         5.7046761332        2.0721124646        0.8260099809
  H         6.1888774755        4.1466551966       -0.5590879590
  H         6.5948048856        3.8586631035       -3.0272422483
  H         6.6003702450       -4.0377579028       -8.1923860816
  H         4.2316044688       -5.8353358424       -8.9662675339
  H         5.7860099654       -6.5729458711       -8.6009718169
  H         4.7802207646       -6.6735602692       -6.4947946989
  H         5.6864358067       -5.1367004508       -6.3552729469
  H         3.9163320660       -5.1330160978       -6.7135746385
  H         7.4058473556       -5.8020054462       -9.8263523855
  H         6.1715353581       -5.3813000746      -10.9711081724
  H         8.3063261805       -3.4108975887      -10.0210788817
  H         8.5374303491       -4.4667794789      -11.4512744187
  H         7.2060175616       -3.2618255015      -11.4592584324
  H         2.4319681814       -2.8535233767       -0.8232115636
  H         0.7536851597       -2.5355576602       -1.2358362427
  H         2.0332583899       -3.9387226929       -2.9370180138
  H         1.2510778246       -2.4805000627       -3.6128783888
  H         3.0210634059       -2.4864985487       -3.3031778742
     165
 i =        2, E =      -790.2017840938
  C         2.6281825908        0.6255894483        0.8452647110
  C         1.7237139094       -0.4312601497        0.1990547659
  C         2.0277532331       -0.8257881263       -1.2699472947
  O         1.1410517874       -0.0720826140       -2.1822501668
  C         1.3732076528        1.2663936933       -2.3208808420
  C         0.7130966505        2.2481323509       -1.5418968776
  C         1.0711501604        3.6122595770       -1.5936124191
  C         2.1109352408        4.0849244332       -2.4239394958
  C         2.7791810101        3.1157459280       -3.1674917403
  C         2.4138377844        1.7332547757       -3.1460426897
  C         3.1546872881        1.1046851670       -4.2419305322
  N         2.9868688885       -0.1571567953       -4.6912478113
  C         3.7205704720       -0.6599933889       -5.7054999416
  C         3.1897165038       -1.6649684052       -6.6171008430
  C         1.9186004942       -2.2311363492       -6.6491619690
  C         1.7052876264       -3.1264408459       -7.7145151603
  C         2.7260951966       -3.4655702179       -8.6312148365
  C         4.0412980450       -2.9450684053       -8.5440245492
  C         4.2439461893       -1.9874064331       -7.5318459070
  C         5.3297134079       -1.0716764220       -7.2111048923
  N         4.9842375196       -0.3270497307       -6.1058019403
 Dy         6.1581891538        1.3558106544       -5.1774492634
  N         4.0703507771        2.0191531535       -4.7129398416
  C         3.7625104850        3.2614597517       -4.2523041526
  N         4.3847599074        4.4272331846       -4.5396098835
  C         5.4973046599        4.5306473067       -5.2801399251
  N         6.4645505286        3.5573431000       -5.4402813762
  C         7.4396920296        4.0177829445       -6.2825497054
  N         8.3821532545        3.3474058703       -6.9766816044
  C         8.2336906823        2.0943164607       -7.4416040738
  N         7.3088796747        1.1584012490       -7.0487358893
  C         7.2620747612        0.1169869066       -7.9369622264
  N         6.4069813493       -0.9251464345       -7.9961607380
  C         8.3448040201        0.2984679219       -8.8897738840
  C         8.9955575139        1.5194819711       -8.5437715236
  C        10.0223142572        2.0386075742       -9.3478970875
  C        10.3051107347        1.2821963851      -10.5179283407
  C         9.6698325293        0.0556386597      -10.8175514648
  C         8.6499228739       -0.4704805445      -10.0029530618
  O        10.5600962124        3.2586998263       -9.0361056647
  C        11.9401735827        3.3265761199       -8.4819598044
  C        11.8722462795        3.2051393578       -6.9401781837
  C        11.4751628189        4.4890907265       -6.2130331800
  C        12.9456511720        2.3569877432       -9.1309264168
  C        13.4782468072        2.8362179199      -10.4906632965
  C         7.2366651355        5.4423782253       -6.5050215391
  C         5.9436038041        5.7368872791       -5.9701532114
  C         5.4574648697        7.0534221584       -6.0127224749
  C         6.3255449328        8.0326123585       -6.5553772653
  C         7.5681859082        7.6990964052       -7.1316806205
  C         8.0402910894        6.3735953181       -7.1613994657
  O         4.1792793591        7.3799439857       -5.6713307739
  C         3.1069268527        7.0483682476       -6.6449701392
  C         1.7904859285        7.3855548607       -5.9473459599
  C         1.4821824311        6.5720628988       -4.6937280793
  C         3.3045277252        7.8963016182       -7.9364313730
  C         4.1046582496        7.2739870511       -9.0927424578
  O         8.3448666115        1.6701912903       -4.5230134030
  C         9.4834054616        1.1490862595       -4.5483665809
  N        10.2213061634        0.9543999709       -3.4554591814
  C         9.6420769053        1.2292103741       -2.1341800682
  C        11.6266888278        0.5633319502       -3.5985463588
  O         5.0062496425        2.1982461779       -7.1449696959
  C         3.9241929838        2.1454388145       -7.7687515730
  N         3.9065574024        2.4396319139       -9.0746130747
  C         5.1488674090        2.8497410211       -9.7386438408
  C         2.6924179650        2.2496778295       -9.8521251928
  N         6.2411360641        1.8237674890       -2.8930761446
  C         6.0254153627        0.6931037112       -2.1794603654
  C         6.2333598865       -0.6188540050       -2.8574432600
  N         6.8456423182       -0.5814291355       -4.0606430332
  C         7.3600225807       -1.6752792921       -4.6350428943
  C         7.0826600800       -2.9519276051       -4.1146203045
  C         6.3368522144       -3.0156719950       -2.9027775213
  C         5.7781807269       -1.8547333728       -2.3276574909
  C         5.8072031746        0.7532353618       -0.7885824010
  C         5.8828627435        2.0219522540       -0.1813791795
  C         6.1262343682        3.1918452075       -0.9468604251
  C         6.3681594003        3.0327687611       -2.3199713686
  O         5.0197877648       -3.3754156373       -9.4113651523
  C         5.9714713071       -4.4782344197       -8.9785541087
  C         5.1706112310       -5.6621587784       -8.3979450519
  C         4.8646439074       -5.6349228238       -6.8966155042
  C         6.8042641779       -4.9444668323      -10.1864818286
  C         7.7608866388       -3.9330388929      -10.8109306613
  C         1.7881695168       -2.3178709161       -1.5218036148
  C         2.0450195324       -2.8183024228       -2.9428623341
  H         2.5720155716        0.5711557018        1.9466801942
  H         3.6890368641        0.4732055471        0.5792352580
  H         2.3578466818        1.6573452569        0.5631076273
  H         1.7589994734       -1.3633938135        0.7970023286
  H         0.6517450658       -0.1435288934        0.2856004216
  H         3.0749444925       -0.5442234366       -1.5233508784
  H        -0.0833495261        1.8885228519       -0.8914716468
  H         0.5457008788        4.3241454577       -0.9625628836
  H         2.4651714884        5.1175457098       -2.4690450674
  H         1.1670419924       -1.9190640350       -5.9156191733
  H         0.7221040564       -3.5776851007       -7.8187633861
  H         2.5289907492       -4.1728994517       -9.4332955959
  H        11.0439050063        1.7018840626      -11.1955016765
  H         9.9530354822       -0.4996824434      -11.7072571149
  H         8.1031830806       -1.4061199768      -10.1581777289
  H        12.2329155370        4.3611645199       -8.7236337055
  H        11.2014333787        2.3623139822       -6.6512480175
  H        12.8645684002        2.8544723695       -6.5815944186
  H        11.5200429607        4.3535238401       -5.1161020768
  H        12.1685917368        5.3117297828       -6.4571477997
  H        10.4449314065        4.7900714649       -6.4615425504
  H        13.7843268300        2.2276536014       -8.4126451939
  H        12.5477885804        1.3170404878       -9.1819466357
  H        13.7604117730        1.9908391160      -11.1406469852
  H        12.7395032860        3.4538497338      -11.0300097709
  H        14.3866022490        3.4506149354      -10.3690666915
  H         5.9355580484        9.0490944679       -6.5509259233
  H         8.1804413831        8.4915111755       -7.5525800521
  H         8.9750040793        6.0512582732       -7.6296663231
  H         3.1856803533        5.9699567210       -6.9010483353
  H         1.8106540904        8.4722452830       -5.7223554806
  H         0.9936474144        7.2734543044       -6.7063240541
  H         1.5021354620        5.4858264499       -4.8905050457
  H         2.1777794321        6.8050432086       -3.8712680041
  H         0.4637788389        6.8232813463       -4.3462773050
  H         2.2751590715        8.1259255059       -8.2770302866
  H         3.6865070781        8.9104468950       -7.6767252530
  H         4.0561635308        6.1678979514       -9.0982197527
  H         3.6981712870        7.6066212005      -10.0658773145
  H         5.1661496862        7.5723989332       -9.0926721768
  H         9.9561129472        0.7950667027       -5.4956758050
  H         9.4271428581        0.2708904816       -1.6248590452
  H        10.3501683453        1.8002860025       -1.5162719520
  H         8.7090080169        1.7993949505       -2.2346089681
  H        12.0447906537        0.4440102210       -2.5913631901
  H        11.6842590533       -0.3925284542       -4.1394482030
  H        12.1782063116        1.3565075688       -4.1303947951
  H         2.9416207912        1.8450982114       -7.3309145526
  H         5.9110457520        3.1170517939       -8.9920079474
  H         5.5303825374        2.0323146884      -10.3775751705
  H         4.9193541800        3.7185428035      -10.3767377443
  H         1.8478098467        2.1158316336       -9.1614019273
  H         2.5353294791        3.1355820845      -10.4840028728
  H         2.8037634615        1.3543168846      -10.4887126566
  H         7.8444223194       -1.5002329039       -5.6204221023
  H         7.5874950423       -3.8152242295       -4.5426824212
  H         6.0816209388       -3.9798792799       -2.4731258876
  H         5.2354918828       -1.8652254804       -1.3759286215
  H         5.7089869935       -0.1806634699       -0.2278521777
  H         5.7030070890        2.0907130336        0.8865502531
  H         6.1935585031        4.1856127754       -0.5116153335
  H         6.5857361570        3.8556878644       -3.0205002807
  H         6.6255835009       -4.0486536988       -8.1958814479
  H         4.2493510005       -5.8644596123       -8.9944399985
  H         5.7700760946       -6.5664065989       -8.6328234874
  H         4.7743387815       -6.6566079713       -6.4866196360
  H         5.6748676153       -5.1427730816       -6.3260259204
  H         3.9172550465       -5.1219344069       -6.6635799009
  H         7.3833497763       -5.8111877168       -9.8051981936
  H         6.1464270262       -5.3972207100      -10.9573096353
  H         8.3387935555       -3.3887793806      -10.0413203704
  H         8.5134113995       -4.4465943572      -11.4385287166
  H         7.2374519486       -3.2203181162      -11.4692442284
  H         2.4210531823       -2.8560025112       -0.7857057036
  H         0.7509308930       -2.5446125776       -1.1986353891
  H         2.0304386024       -3.9239036400       -2.9425312201
  H         1.2642279735       -2.4804766743       -3.6416566363
  H         3.0259615106       -2.4976584295       -3.3382416349
     165
 i =        3, E =      -790.2337741277
  C         2.6190694463        0.6204823770        0.8438648590
  C         1.7083601097       -0.4473464912        0.2159287532
  C         2.0105722494       -0.8199751134       -1.2586141100
  O         1.1126056105       -0.0577057301       -2.1662423303
  C         1.4060418074        1.2703667547       -2.2752299103
  C         0.6859645919        2.2534705063       -1.5449145894
  C         1.0456650711        3.6196917784       -1.5774104486
  C         2.1161757339        4.0668607079       -2.3873758605
  C         2.7468448523        3.1248827669       -3.1890502723
  C         2.3927515851        1.7401120789       -3.1570974472
  C         3.1712123532        1.0946287825       -4.2188630615
  N         2.9831427330       -0.1439256606       -4.7097926751
  C         3.7242951222       -0.6644886929       -5.7087772990
  C         3.1950143333       -1.6907827419       -6.6062282580
  C         1.9199263486       -2.2394107746       -6.6786401763
  C         1.6815624851       -3.1509316660       -7.7282496474
  C         2.7124158444       -3.4734878716       -8.6415970904
  C         4.0390293962       -2.9736141146       -8.5400417525
  C         4.2345355899       -2.0051816002       -7.5374859052
  C         5.3273745451       -1.0870800433       -7.2195363298
  N         4.9920266862       -0.3380025923       -6.1088008045
 Dy         6.1673187900        1.3655524285       -5.1704531975
  N         4.0301560241        2.0361690028       -4.7796645262
  C         3.7937815129        3.2694643232       -4.2087376686
  N         4.3708993618        4.4335692207       -4.5623811745
  C         5.5076001334        4.5454031929       -5.2647202928
  N         6.4685093505        3.5673447782       -5.4332718146
  C         7.4435877832        4.0189427164       -6.2827401257
  N         8.3744744415        3.3464758177       -6.9919831564
  C         8.2404023228        2.0905143685       -7.4503475948
  N         7.2973259267        1.1632442839       -7.0574241904
  C         7.2821850988        0.0938477362       -7.9184958437
  N         6.4052696565       -0.9295874256       -8.0014519529
  C         8.3525234802        0.2946568715       -8.8917337864
  C         8.9991561178        1.5219476225       -8.5651070799
  C        10.0337684895        2.0339229468       -9.3600788401
  C        10.3372625456        1.2758320643      -10.5292771727
  C         9.6913996770        0.0557381617      -10.8467219245
  C         8.6791387067       -0.4568688958      -10.0105072521
  O        10.5832551700        3.2474903841       -9.0589420178
  C        11.9556218728        3.3119608787       -8.4699948478
  C        11.8791558369        3.1874296257       -6.9259292282
  C        11.4779588726        4.4818362164       -6.2152395922
  C        12.9569071913        2.3470299820       -9.1228673739
  C        13.4749609851        2.8307569624      -10.4908165147
  C         7.2255827999        5.4444060891       -6.5282159212
  C         5.9609893533        5.7554605741       -5.9504384012
  C         5.4542514193        7.0562061535       -6.0537500098
  C         6.3324470845        8.0578386866       -6.5504664751
  C         7.5750746129        7.7309120172       -7.1332914575
  C         8.0301136659        6.3955104019       -7.1531046222
  O         4.1901057982        7.3943670109       -5.6863109654
  C         3.1041400007        7.0697078371       -6.6547423192
  C         1.7867755399        7.3993631980       -5.9618290356
  C         1.4777838024        6.5825613119       -4.7059163773
  C         3.2837209536        7.9141729943       -7.9460500207
  C         4.1043895758        7.2786951428       -9.0856975316
  O         8.3754965375        1.7074960238       -4.5449141145
  C         9.5038938380        1.1625365918       -4.5383941570
  N        10.2312392515        0.9578940562       -3.4402337498
  C         9.6513343468        1.2281610051       -2.1144568898
  C        11.6359392946        0.5537170709       -3.5924306768
  O         4.9909060376        2.2237147163       -7.1342485079
  C         3.9359442542        2.1525072356       -7.7935700208
  N         3.9024367717        2.4462696023       -9.0987447071
  C         5.1462886345        2.8588203054       -9.7624146617
  C         2.6811256526        2.2517596080       -9.8675153022
  N         6.2421184240        1.8104973444       -2.8861657687
  C         6.0455491337        0.6878138893       -2.1522050617
  C         6.1991553358       -0.6262667117       -2.8587065383
  N         6.8970865774       -0.5682137164       -4.0271683202
  C         7.3210257657       -1.6917489936       -4.6384158556
  C         7.1266802829       -2.9633536074       -4.0766261028
  C         6.2936055590       -3.0501400735       -2.9256150087
  C         5.8463167118       -1.8683451886       -2.2953993913
  C         5.8243386250        0.7686968727       -0.7675034178
  C         5.8547228905        2.0374878632       -0.1509857673
  C         6.1457701939        3.1941673636       -0.9199222355
  C         6.3316555337        3.0180110641       -2.3029351691
  O         5.0037569918       -3.3941824766       -9.4123828769
  C         5.9489848180       -4.4967762018       -8.9850664330
  C         5.1718288073       -5.6923357811       -8.4052620160
  C         4.8613999531       -5.6322448511       -6.9019500287
  C         6.7930763446       -4.9587521199      -10.1816163021
  C         7.7484610385       -3.9378946497      -10.8059785286
  C         1.7819808518       -2.3135645607       -1.5024046336
  C         2.0397648850       -2.8198560359       -2.9255829245
  H         2.5664086340        0.5740308919        1.9454040144
  H         3.6835882103        0.4753996287        0.5845716213
  H         2.3704745259        1.6592082429        0.5596113727
  H         1.7751412225       -1.3765318830        0.8014796070
  H         0.6501230861       -0.1426212516        0.2732361491
  H         3.0585157224       -0.5480813750       -1.5378975263
  H        -0.0989414326        1.9057835427       -0.8728827334
  H         0.5219427552        4.3303198854       -0.9404885943
  H         2.4302036466        5.1127905767       -2.4555121138
  H         1.1683017431       -1.9417213233       -5.9394021872
  H         0.6977103735       -3.6016200649       -7.8410110741
  H         2.5193906145       -4.1842817631       -9.4430864584
  H        11.0624979124        1.6920878073      -11.2234361796
  H         9.9753543347       -0.4937395125      -11.7423797757
  H         8.1259796477       -1.3846806478      -10.1890897352
  H        12.2298181158        4.3545169455       -8.7213932033
  H        11.1884590452        2.3615972689       -6.6718541627
  H        12.8802217325        2.8676642288       -6.5904745232
  H        11.5168023037        4.3550605868       -5.1173769769
  H        12.1599433797        5.3170375367       -6.4564997011
  H        10.4500215093        4.7989707036       -6.4612809691
  H        13.7924128934        2.2407538163       -8.4108965680
  H        12.5245851595        1.3317744509       -9.1825584207
  H        13.7614752206        1.9928159331      -11.1481987953
  H        12.7442003244        3.4498926103      -11.0437253550
  H        14.3759151783        3.4576237561      -10.3711757905
  H         5.9519793025        9.0777334700       -6.5625819316
  H         8.1865865091        8.5196309985       -7.5661514094
  H         8.9652590879        6.0764273114       -7.6242290084
  H         3.1836429624        5.9788832690       -6.8756693064
  H         1.8129947883        8.4748855654       -5.7178448028
  H         0.9892595206        7.2601933347       -6.7071184843
  H         1.5046079283        5.4901349833       -4.8795198861
  H         2.1771246718        6.7944897912       -3.8785338553
  H         0.4643223576        6.8190095052       -4.3382683940
  H         2.2573104552        8.1148372299       -8.2877763153
  H         3.6910482067        8.8990820895       -7.6626353434
  H         4.0588371823        6.1711610461       -9.0990402272
  H         3.7005960747        7.6077425201      -10.0605865027
  H         5.1734904253        7.5553146606       -9.0916044195
  H         9.9645756472        0.8035539150       -5.4883060317
  H         9.4300832038        0.2649513241       -1.6185373942