 DBCSR| Multiplication driver                                               XSMM
 DBCSR| Multrec recursion limit                                              512
 DBCSR| Multiplication stack size                                           1000
 DBCSR| Maximum elements for images                                    UNLIMITED
 DBCSR| Multiplicative factor virtual images                                   1
 DBCSR| Randmat seed                                                    12341313
 DBCSR| Multiplication size stacks                                             3
 DBCSR| Number of 3D layers                                               SINGLE
 DBCSR| Use MPI memory allocation                                              T
 DBCSR| Use RMA algorithm                                                      F
 DBCSR| Use Communication thread                                               T
 DBCSR| Communication thread load                                             87


  **** **** ******  **  PROGRAM STARTED AT               2023-04-10 15:52:52.929
 ***** ** ***  *** **   PROGRAM STARTED ON        node153.pri.kelvin2.alces.netw
 **    ****   ******    PROGRAM STARTED BY                              40265864
 ***** **    ** ** **   PROGRAM PROCESS ID                                119290
  **** **  *******  **  PROGRAM STARTED IN /mnt/scratch2/users/40265864/MSc_ML_M
                                           M/ln_replacements/xyz/Dy_L9_L25_DMF_D
                                           MF/geometry_optimisation_2/run-0

 CP2K| version string:                                          CP2K version 4.1
 CP2K| source code revision number:                                    svn:17462
 CP2K| cp2kflags: libint fftw3 libxc parallel mpi3 scalapack libxsmm libderiv_ma
 CP2K|            x_am1=5 libint_max_am=6
 CP2K| is freely available from                            https://www.cp2k.org/
 CP2K| Program compiled at                          Mon 24 Oct 18:14:20 BST 2022
 CP2K| Program compiled on                      login1.pri.kelvin2.alces.network
 CP2K| Program compiled for                                                local
 CP2K| Data directory path                      /users/40265864/source/cp2k/data
 CP2K| Input file name                                         geo-opt-relax.inp

 GLOBAL| Force Environment number                                              1
 GLOBAL| Basis set file name                                 ../BASIS_MOLOPT_UCL
 GLOBAL| Potential file name                                        ../POTENTIAL
 GLOBAL| MM Potential file name                                     MM_POTENTIAL
 GLOBAL| Coordinate file name                        ../../Dy_L9_L25_DMF_DMF.xyz
 GLOBAL| Method name                                                        CP2K
 GLOBAL| Project name                                                 dy_complex
 GLOBAL| Preferred FFT library                                             FFTW3
 GLOBAL| Preferred diagonalization lib.                                       SL
 GLOBAL| Run type                                                        GEO_OPT
 GLOBAL| All-to-all communication in single precision                          F
 GLOBAL| FFTs using library dependent lengths                                  F
 GLOBAL| Global print level                                                  LOW
 GLOBAL| Total number of message passing processes                           121
 GLOBAL| Number of threads for this process                                    1
 GLOBAL| This output is from process                                           0
 GLOBAL| CPU model name :  AMD EPYC 7702 64-Core Processor

 MEMORY| system memory details [Kb]
 MEMORY|                        rank 0           min           max       average
 MEMORY| MemTotal            792056776     792056776     792056776     792056776
 MEMORY| MemFree             736287260     736287260     736287764     736287272
 MEMORY| Buffers                303744        303744        303744        303744
 MEMORY| Cached               31238460      31238460      31238460      31238460
 MEMORY| Slab                  9822448       9822448       9822448       9822448
 MEMORY| SReclaimable          7525932       7525932       7525932       7525932
 MEMORY| MemLikelyFree       775355396     775355396     775355900     775355408


 GENERATE|  Preliminary Number of Bonds generated:                             0
 GENERATE|  Achieved consistency in connectivity generation.

 *******************************************************************************
 *******************************************************************************
 **                                                                           **
 **     #####                         ##              ##                      **
 **    ##   ##            ##          ##              ##                      **
 **   ##     ##                       ##            ######                    **
 **   ##     ##  ##   ##  ##   #####  ##  ##   ####   ##    #####    #####    **
 **   ##     ##  ##   ##  ##  ##      ## ##   ##      ##   ##   ##  ##   ##   **
 **   ##  ## ##  ##   ##  ##  ##      ####     ###    ##   ######   ######    **
 **    ##  ###   ##   ##  ##  ##      ## ##      ##   ##   ##       ##        **
 **     #######   #####   ##   #####  ##  ##  ####    ##    #####   ##        **
 **           ##                                                    ##        **
 **                                                                           **
 **                                                ... make the atoms dance   **
 **                                                                           **
 **            Copyright (C) by CP2K developers group (2000 - 2016)           **
 **                                                                           **
 *******************************************************************************


 SCF PARAMETERS         Density guess:                                   RESTART
                        --------------------------------------------------------
                        max_scf:                                             200
                        max_scf_history:                                       0
                        max_diis:                                              4
                        --------------------------------------------------------
                        eps_scf:                                        5.00E-05
                        eps_scf_history:                                0.00E+00
                        eps_diis:                                       1.00E-01
                        eps_eigval:                                     1.00E-05
                        --------------------------------------------------------
                        level_shift [a.u.]:                                 0.00
                        --------------------------------------------------------
                        No outer SCF

 *******************************************************************************
 ***                     STARTING GEOMETRY OPTIMIZATION                      ***
 ***                                   BFGS                                  ***
 *******************************************************************************

 Spin 1

 Number of electrons:                                                        232
 Number of occupied orbitals:                                                232
 Number of molecular orbitals:                                               232

 Spin 2

 Number of electrons:                                                        231
 Number of occupied orbitals:                                                231
 Number of molecular orbitals:                                               231

 Number of orbital functions:                                               1550
 Number of independent orbital functions:                                   1550

 Extrapolation method: initial_guess

 *** WARNING in qs_initial_guess.F:262 :: User requested to restart the   ***
 *** wavefunction from the file named: dy_complex-RESTART.wfn. This file  ***
 *** does not exist. Please check the existence of the file or change     ***
 *** properly the value of the keyword WFN_RESTART_FILE_NAME. Calculation ***
 *** continues using ATOMIC GUESS.                                        ***



 SCF WAVEFUNCTION OPTIMIZATION

  ----------------------------------- OT ---------------------------------------
  Minimizer      : DIIS                : direct inversion
                                         in the iterative subspace
                                         using   7 DIIS vectors
                                         safer DIIS on
  Preconditioner : FULL_SINGLE_INVERSE : inversion of 
                                         H + eS - 2*(Sc)(c^T*H*c+const)(Sc)^T
  Precond_solver : DEFAULT
  stepsize       :    0.08000000                  energy_gap     :    0.08000000
  eps_taylor     :   0.10000E-15                  max_taylor     :             4
  ----------------------------------- OT ---------------------------------------

  Step     Update method      Time    Convergence         Total energy    Change
  ------------------------------------------------------------------------------
     1 OT DIIS     0.80E-01   11.3     0.01623727      -742.6839836725 -7.43E+02
     2 OT DIIS     0.80E-01    4.5     0.01197469      -755.1489817241 -1.25E+01
     3 OT DIIS     0.80E-01    4.0     0.00982411      -764.3557068728 -9.21E+00
     4 OT DIIS     0.80E-01    4.0     0.00756322      -773.4974646546 -9.14E+00
     5 OT DIIS     0.80E-01    4.0     0.00498693      -781.2415033231 -7.74E+00
     6 OT DIIS     0.80E-01    4.0     0.00369019      -784.2654651745 -3.02E+00
     7 OT DIIS     0.80E-01    4.0     0.00271408      -786.1713782484 -1.91E+00
     8 OT DIIS     0.80E-01    4.0     0.00210480      -787.2221778302 -1.05E+00
     9 OT DIIS     0.80E-01    4.0     0.00170736      -787.7232222626 -5.01E-01
    10 OT DIIS     0.80E-01    4.0     0.00135230      -788.2359505554 -5.13E-01
    11 OT DIIS     0.80E-01    4.0     0.00104466      -788.6457865858 -4.10E-01
    12 OT DIIS     0.80E-01   12.4     0.00089172      -788.8810633441 -2.35E-01
    13 OT DIIS     0.80E-01    4.1     0.00073540      -789.0634478410 -1.82E-01
    14 OT DIIS     0.80E-01    4.5     0.00071715      -789.1286513227 -6.52E-02
    15 OT DIIS     0.80E-01    4.1     0.00058004      -789.2376098020 -1.09E-01
    16 OT DIIS     0.80E-01    4.1     0.00046480      -789.3523590828 -1.15E-01
    17 OT DIIS     0.80E-01    4.0     0.00039747      -789.4149095021 -6.26E-02
    18 OT DIIS     0.80E-01    4.0     0.00035529      -789.4653483057 -5.04E-02
    19 OT DIIS     0.80E-01    4.0     0.00032241      -789.4937948101 -2.84E-02
    20 OT DIIS     0.80E-01    4.0     0.00029996      -789.5256510462 -3.19E-02
    21 OT DIIS     0.80E-01    4.0     0.00026134      -789.5559455567 -3.03E-02
    22 OT DIIS     0.80E-01    4.0     0.00024762      -789.5826482552 -2.67E-02
    23 OT DIIS     0.80E-01    4.0     0.00022599      -789.6012298688 -1.86E-02
    24 OT SD       0.80E-01    4.0     0.00022392      -789.6146607554 -1.34E-02
    25 OT DIIS     0.80E-01    4.0     0.00022090      -789.6175160208 -2.86E-03
    26 OT DIIS     0.80E-01    4.0     0.00021466      -789.6280097428 -1.05E-02
    27 OT DIIS     0.80E-01    4.0     0.00021189      -789.6326483199 -4.64E-03
    28 OT DIIS     0.80E-01    4.0     0.00020836      -789.6416496031 -9.00E-03
    29 OT SD       0.80E-01    4.0     0.00020878      -789.6495109882 -7.86E-03
    30 OT SD       0.80E-01    4.0     0.00020866      -789.6520122884 -2.50E-03
    31 OT SD       0.80E-01    4.4     0.00020863      -789.6545115809 -2.50E-03
    32 OT DIIS     0.80E-01    4.1     0.00020862      -789.6570104093 -2.50E-03
    33 OT SD       0.80E-01    4.0     0.00021395      -789.6589961479 -1.99E-03
    34 OT SD       0.80E-01    4.0     0.00021318      -789.6616184201 -2.62E-03
    35 OT SD       0.80E-01    4.0     0.00021274      -789.6642245532 -2.61E-03
    36 OT SD       0.80E-01    4.0     0.00021238      -789.6668204906 -2.60E-03
    37 OT DIIS     0.80E-01    4.8     0.00021203      -789.6694077878 -2.59E-03
    38 OT SD       0.80E-01    5.7     0.00023160      -789.6794036197 -1.00E-02
    39 OT DIIS     0.80E-01    4.0     0.00022555      -789.6824366748 -3.03E-03
    40 OT SD       0.80E-01    4.0     0.00020803      -789.6993009660 -1.69E-02
    41 OT DIIS     0.80E-01    4.0     0.00020592      -789.7017720304 -2.47E-03
    42 OT SD       0.80E-01   11.3     0.00022099      -789.7229111641 -2.11E-02
    43 OT SD       0.80E-01   11.9     0.00021243      -789.7256542564 -2.74E-03
    44 OT DIIS     0.80E-01   11.5     0.00020667      -789.7282075485 -2.55E-03
    45 OT DIIS     0.80E-01   11.5     0.00017399      -789.7514238459 -2.32E-02
    46 OT SD       0.80E-01    4.5     0.00017266      -789.7531139556 -1.69E-03
    47 OT SD       0.80E-01   14.7     0.00016943      -789.7548071980 -1.69E-03
    48 OT DIIS     0.80E-01   21.9     0.00016741      -789.7564445382 -1.64E-03
    49 OT DIIS     0.80E-01    6.0     0.00014756      -789.7816482837 -2.52E-02
    50 OT DIIS     0.80E-01    4.0     0.00014636      -789.7857949678 -4.15E-03
    51 OT DIIS     0.80E-01    8.7     0.00014548      -789.7880871078 -2.29E-03
    52 OT SD       0.80E-01    4.2     0.00014410      -789.7936307521 -5.54E-03
    53 OT DIIS     0.80E-01   13.9     0.00014400      -789.7948223385 -1.19E-03
    54 OT SD       0.80E-01   14.5     0.00014494      -789.7955295061 -7.07E-04
    55 OT SD       0.80E-01   14.4     0.00014492      -789.7967352821 -1.21E-03
    56 OT SD       0.80E-01   10.5     0.00014501      -789.7979413238 -1.21E-03
    57 OT SD       0.80E-01    4.0     0.00014514      -789.7991490003 -1.21E-03
    58 OT SD       0.80E-01    4.0     0.00014530      -789.8003590300 -1.21E-03
    59 OT SD       0.80E-01    4.0     0.00014548      -789.8015718637 -1.21E-03
    60 OT SD       0.80E-01    4.0     0.00014568      -789.8027878159 -1.22E-03
    61 OT DIIS     0.80E-01    4.0     0.00014589      -789.8040071201 -1.22E-03
    62 OT SD       0.80E-01    4.0     0.00019887      -789.8061063475 -2.10E-03
    63 OT SD       0.80E-01    4.0     0.00019066      -789.8083230020 -2.22E-03
    64 OT SD       0.80E-01    4.0     0.00018600      -789.8103816037 -2.06E-03
    65 OT SD       0.80E-01    4.0     0.00018298      -789.8123501886 -1.97E-03
    66 OT SD       0.80E-01    4.1     0.00018086      -789.8142604708 -1.91E-03
    67 OT SD       0.80E-01   15.6     0.00017928      -789.8161296836 -1.87E-03
    68 OT DIIS     0.80E-01   15.6     0.00017803      -789.8179681321 -1.84E-03
    69 OT DIIS     0.80E-01   15.6     0.00016238      -789.8551703317 -3.72E-02
    70 OT DIIS     0.80E-01   15.6     0.00015528      -789.8732718196 -1.81E-02
    71 OT SD       0.80E-01   15.5     0.00014387      -789.8796765143 -6.40E-03
    72 OT DIIS     0.80E-01   12.0     0.00014047      -789.8808496877 -1.17E-03
    73 OT DIIS     0.80E-01    4.0     0.00017522      -789.8833584153 -2.51E-03
    74 OT DIIS     0.80E-01    4.1     0.00017330      -789.8847287566 -1.37E-03
    75 OT DIIS     0.80E-01    8.2     0.00015407      -789.8890691063 -4.34E-03
    76 OT SD       0.80E-01    4.0     0.00011482      -789.9057737155 -1.67E-02
    77 OT DIIS     0.80E-01    4.0     0.00010645      -789.9064995734 -7.26E-04
    78 OT DIIS     0.80E-01    4.0     0.00009287      -789.9100186385 -3.52E-03
    79 OT DIIS     0.80E-01    4.0     0.00008219      -789.9147290921 -4.71E-03
    80 OT DIIS     0.80E-01    4.0     0.00007784      -789.9174368050 -2.71E-03
    81 OT DIIS     0.80E-01    4.0     0.00007169      -789.9215376782 -4.10E-03
    82 OT DIIS     0.80E-01    4.2     0.00006733      -789.9237173375 -2.18E-03
    83 OT DIIS     0.80E-01    4.0     0.00006143      -789.9274795984 -3.76E-03
    84 OT DIIS     0.80E-01    4.1     0.00005771      -789.9296808962 -2.20E-03
    85 OT DIIS     0.80E-01    4.0     0.00005341      -789.9325458305 -2.86E-03
    86 OT DIIS     0.80E-01    4.0     0.00005076      -789.9341572906 -1.61E-03
    87 OT DIIS     0.80E-01    4.0     0.00004719      -789.9364854496 -2.33E-03

  *** SCF run converged in    87 steps ***


  Electronic density on regular grids:       -462.9999999916        0.0000000084
  Core density on regular grids:              465.9999999681       -0.0000000319
  Total charge density on r-space grids:        2.9999999765
  Total charge density g-space grids:           2.9999999765

  Overlap energy of the core charge distribution:               0.00003893799044
  Self energy of the core charge distribution:              -1785.28427869813959
  Core Hamiltonian energy:                                    558.08519729380009
  Hartree energy:                                             650.62099706172194
  Exchange-correlation energy:                               -213.35844004499350

  Total energy:                                              -789.93648544962070

  Integrated absolute spin density  :                               5.6164743265
  Ideal and single determinant S**2 :                    0.750000       3.749957

 ENERGY| Total FORCE_EVAL ( QS ) energy (a.u.):             -789.937785977213593


 --------  Informations at step =     0 ------------
  Optimization Method        =                 BFGS
  Total Energy               =      -789.9377859772
  Used time                  =              552.428
 ---------------------------------------------------

 --------------------------
 OPTIMIZATION STEP:      1
 --------------------------

 Spin 1

 Number of electrons:                                                        232
 Number of occupied orbitals:                                                232
 Number of molecular orbitals:                                               232

 Spin 2

 Number of electrons:                                                        231
 Number of occupied orbitals:                                                231
 Number of molecular orbitals:                                               231

 Number of orbital functions:                                               1550
 Number of independent orbital functions:                                   1550

 Extrapolation method: ASPC


 SCF WAVEFUNCTION OPTIMIZATION

  ----------------------------------- OT ---------------------------------------
  Minimizer      : DIIS                : direct inversion
                                         in the iterative subspace
                                         using   7 DIIS vectors
                                         safer DIIS on
  Preconditioner : FULL_SINGLE_INVERSE : inversion of 
                                         H + eS - 2*(Sc)(c^T*H*c+const)(Sc)^T
  Precond_solver : DEFAULT
  stepsize       :    0.08000000                  energy_gap     :    0.08000000
  eps_taylor     :   0.10000E-15                  max_taylor     :             4
  ----------------------------------- OT ---------------------------------------

  Step     Update method      Time    Convergence         Total energy    Change
  ------------------------------------------------------------------------------
     1 OT DIIS     0.80E-01    3.4     0.00137217      -789.9137651993 -7.90E+02
     2 OT DIIS     0.80E-01    4.0     0.00098929      -790.0046151659 -9.08E-02
     3 OT DIIS     0.80E-01    4.0     0.00058979      -790.0907326887 -8.61E-02
     4 OT DIIS     0.80E-01    4.0     0.00039774      -790.1254722103 -3.47E-02
     5 OT DIIS     0.80E-01    4.0     0.00039430      -790.1339243215 -8.45E-03
     6 OT DIIS     0.80E-01    4.0     0.00018351      -790.1389510125 -5.03E-03
     7 OT DIIS     0.80E-01    4.0     0.00012428      -790.1419806628 -3.03E-03
     8 OT DIIS     0.80E-01    4.0     0.00010217      -790.1432125690 -1.23E-03
     9 OT DIIS     0.80E-01    4.0     0.00008965      -790.1440127857 -8.00E-04
    10 OT DIIS     0.80E-01    4.0     0.00007917      -790.1444257231 -4.13E-04
    11 OT DIIS     0.80E-01    4.0     0.00006469      -790.1449752808 -5.50E-04
    12 OT DIIS     0.80E-01   12.5     0.00005889      -790.1454971805 -5.22E-04
    13 OT DIIS     0.80E-01   13.6     0.00005538      -790.1459240362 -4.27E-04
    14 OT DIIS     0.80E-01    5.8     0.00005001      -790.1463532179 -4.29E-04
    15 OT DIIS     0.80E-01    4.0     0.00004641      -790.1467817837 -4.29E-04

  *** SCF run converged in    15 steps ***


  Electronic density on regular grids:       -462.9999999921        0.0000000079
  Core density on regular grids:              465.9999999681       -0.0000000319
  Total charge density on r-space grids:        2.9999999761
  Total charge density g-space grids:           2.9999999761

  Overlap energy of the core charge distribution:               0.00002846662698
  Self energy of the core charge distribution:              -1785.28427869813959
  Core Hamiltonian energy:                                    554.60960728291116
  Hartree energy:                                             652.97260340298953
  Exchange-correlation energy:                               -212.44474223809030

  Total energy:                                              -790.14678178370241

  Integrated absolute spin density  :                               5.7439515994
  Ideal and single determinant S**2 :                    0.750000       3.781600

 ENERGY| Total FORCE_EVAL ( QS ) energy (a.u.):             -790.147100216044009


 --------  Informations at step =     1 ------------
  Optimization Method        =                 BFGS
  Total Energy               =      -790.1471002160
  Real energy change         =        -0.2093142388
  Predicted change in energy =        -0.1940147632
  Scaling factor             =         0.0000000000
  Step size                  =         0.3452714629
  Trust radius               =         0.5669178399
  Decrease in energy         =                  YES
  Used time                  =               87.782

  Convergence check :
  Max. step size             =         0.3452714629
  Conv. limit for step size  =         0.1000000000
  Convergence in step size   =                   NO
  RMS step size              =         0.0724067135
  Conv. limit for RMS step   =         0.0100000000
  Convergence in RMS step    =                   NO
  Max. gradient              =         0.0450902089
  Conv. limit for gradients  =         0.1000000000
  Conv. in gradients         =                  YES
  RMS gradient               =         0.0081888510
  Conv. limit for RMS grad.  =         0.0100000000
  Conv. in RMS gradients     =                  YES
 ---------------------------------------------------

 --------------------------
 OPTIMIZATION STEP:      2
 --------------------------

 Spin 1

 Number of electrons:                                                        232
 Number of occupied orbitals:                                                232
 Number of molecular orbitals:                                               232

 Spin 2

 Number of electrons:                                                        231
 Number of occupied orbitals:                                                231
 Number of molecular orbitals:                                               231

 Number of orbital functions:                                               1550
 Number of independent orbital functions:                                   1550

 Extrapolation method: ASPC


 SCF WAVEFUNCTION OPTIMIZATION

  ----------------------------------- OT ---------------------------------------
  Minimizer      : DIIS                : direct inversion
                                         in the iterative subspace
                                         using   7 DIIS vectors
                                         safer DIIS on
  Preconditioner : FULL_SINGLE_INVERSE : inversion of 
                                         H + eS - 2*(Sc)(c^T*H*c+const)(Sc)^T
  Precond_solver : DEFAULT
  stepsize       :    0.08000000                  energy_gap     :    0.08000000
  eps_taylor     :   0.10000E-15                  max_taylor     :             4
  ----------------------------------- OT ---------------------------------------

  Step     Update method      Time    Convergence         Total energy    Change
  ------------------------------------------------------------------------------
     1 OT DIIS     0.80E-01    3.1     0.00206641      -789.7173051400 -7.90E+02
     2 OT DIIS     0.80E-01    4.0     0.00142333      -789.9161314584 -1.99E-01
     3 OT DIIS     0.80E-01    4.0     0.00093524      -790.0686149617 -1.52E-01
     4 OT DIIS     0.80E-01    4.1     0.00069306      -790.1536394825 -8.50E-02
     5 OT DIIS     0.80E-01    4.6     0.00055324      -790.1745125217 -2.09E-02
     6 OT DIIS     0.80E-01    4.2     0.00025387      -790.1871445174 -1.26E-02
     7 OT DIIS     0.80E-01    8.0     0.00022541      -790.1912971832 -4.15E-03
     8 OT DIIS     0.80E-01    4.1     0.00013487      -790.1930675034 -1.77E-03
     9 OT DIIS     0.80E-01    4.2     0.00010545      -790.1941672657 -1.10E-03
    10 OT DIIS     0.80E-01    4.1     0.00008191      -790.1946991923 -5.32E-04
    11 OT DIIS     0.80E-01    4.1     0.00006727      -790.1952127672 -5.14E-04
    12 OT DIIS     0.80E-01    4.2     0.00006332      -790.1955667624 -3.54E-04
    13 OT DIIS     0.80E-01    4.0     0.00006216      -790.1958523815 -2.86E-04
    14 OT DIIS     0.80E-01    4.0     0.00006201      -790.1960776491 -2.25E-04
    15 OT DIIS     0.80E-01    4.0     0.00006171      -790.1962248739 -1.47E-04
    16 OT SD       0.80E-01    4.0     0.00006173      -790.1963077026 -8.28E-05
    17 OT SD       0.80E-01    4.0     0.00006191      -790.1965266758 -2.19E-04
    18 OT SD       0.80E-01    4.0     0.00006216      -790.1967466232 -2.20E-04
    19 OT DIIS     0.80E-01    4.2     0.00006281      -790.1969669082 -2.20E-04
    20 OT SD       0.80E-01    4.0     0.00006426      -790.1971262843 -1.59E-04
    21 OT SD       0.80E-01    4.0     0.00006520      -790.1973553712 -2.29E-04
    22 OT SD       0.80E-01    4.0     0.00007030      -790.1975756795 -2.20E-04
    23 OT SD       0.80E-01    4.0     0.00008975      -790.1977703201 -1.95E-04
    24 OT SD       0.80E-01    4.0     0.00014912      -790.1978605709 -9.03E-05
    25 OT DIIS     0.80E-01    4.0     0.00029809      -790.1974745540  3.86E-04
    26 OT DIIS     0.80E-01    4.0     0.00005741      -790.1998359646 -2.36E-03
    27 OT DIIS     0.80E-01    4.3     0.00005210      -790.2005389630 -7.03E-04
    28 OT DIIS     0.80E-01    4.1     0.00005014      -790.2007666119 -2.28E-04
    29 OT DIIS     0.80E-01    4.3     0.00004250      -790.2012189927 -4.52E-04

  *** SCF run converged in    29 steps ***


  Electronic density on regular grids:       -462.9999999927        0.0000000073
  Core density on regular grids:              465.9999999681       -0.0000000319
  Total charge density on r-space grids:        2.9999999754
  Total charge density g-space grids:           2.9999999754

  Overlap energy of the core charge distribution:               0.00002503173074
  Self energy of the core charge distribution:              -1785.28427869813959
  Core Hamiltonian energy:                                    553.20740808551784
  Hartree energy:                                             653.92556512390900
  Exchange-correlation energy:                               -212.04993853573168

  Total energy:                                              -790.20121899271351

  Integrated absolute spin density  :                               5.8014881016
  Ideal and single determinant S**2 :                    0.750000       3.748469

 ENERGY| Total FORCE_EVAL ( QS ) energy (a.u.):             -790.201784093816514


 --------  Informations at step =     2 ------------
  Optimization Method        =                 BFGS
  Total Energy               =      -790.2017840938
  Real energy change         =        -0.0546838778
  Predicted change in energy =        -0.0714279198
  Scaling factor             =         0.0000000000
  Step size                  =         0.2609566282
  Trust radius               =         0.5669178399
  Decrease in energy         =                  YES
  Used time                  =              128.133

  Convergence check :
  Max. step size             =         0.2609566282
  Conv. limit for step size  =         0.1000000000
  Convergence in step size   =                   NO
  RMS step size              =         0.0523495205
  Conv. limit for RMS step   =         0.0100000000
  Convergence in RMS step    =                   NO
  Max. gradient              =         0.0290636593
  Conv. limit for gradients  =         0.1000000000
  Conv. in gradients         =                  YES
  RMS gradient               =         0.0056001222
  Conv. limit for RMS grad.  =         0.0100000000
  Conv. in RMS gradients     =                  YES
 ---------------------------------------------------

 --------------------------
 OPTIMIZATION STEP:      3
 --------------------------

 Spin 1

 Number of electrons:                                                        232
 Number of occupied orbitals:                                                232
 Number of molecular orbitals:                                               232

 Spin 2

 Number of electrons:                                                        231
 Number of occupied orbitals:                                                231
 Number of molecular orbitals:                                               231

 Number of orbital functions:                                               1550
 Number of independent orbital functions:                                   1550

 Extrapolation method: ASPC


 SCF WAVEFUNCTION OPTIMIZATION

  ----------------------------------- OT ---------------------------------------
  Minimizer      : DIIS                : direct inversion
                                         in the iterative subspace
                                         using   7 DIIS vectors
                                         safer DIIS on
  Preconditioner : FULL_SINGLE_INVERSE : inversion of 
                                         H + eS - 2*(Sc)(c^T*H*c+const)(Sc)^T
  Precond_solver : DEFAULT
  stepsize       :    0.08000000                  energy_gap     :    0.08000000
  eps_taylor     :   0.10000E-15                  max_taylor     :             4
  ----------------------------------- OT ---------------------------------------

  Step     Update method      Time    Convergence         Total energy    Change
  ------------------------------------------------------------------------------
     1 OT DIIS     0.80E-01    3.2     0.00244191      -789.5504432714 -7.90E+02
     2 OT DIIS     0.80E-01    4.1     0.00169893      -789.8321110346 -2.82E-01
     3 OT DIIS     0.80E-01    4.0     0.00114728      -790.0647447423 -2.33E-01
     4 OT DIIS     0.80E-01    4.0     0.00124434      -790.1451524047 -8.04E-02
     5 OT DIIS     0.80E-01   10.6     0.00052051      -790.1987647680 -5.36E-02
     6 OT DIIS     0.80E-01    7.4     0.00031436      -790.2207830055 -2.20E-02
     7 OT DIIS     0.80E-01    4.1     0.00031371      -790.2259098988 -5.13E-03
     8 OT DIIS     0.80E-01    4.1     0.00015642      -790.2293170179 -3.41E-03
     9 OT DIIS     0.80E-01    4.1     0.00013023      -790.2308601361 -1.54E-03
    10 OT DIIS     0.80E-01    4.1     0.00009247      -790.2317463401 -8.86E-04
    11 OT DIIS     0.80E-01    4.1     0.00007629      -790.2324017775 -6.55E-04
    12 OT DIIS     0.80E-01    4.1     0.00006483      -790.2327847247 -3.83E-04
    13 OT DIIS     0.80E-01    4.6     0.00005639      -790.2330992459 -3.15E-04
    14 OT DIIS     0.80E-01    4.3     0.00005002      -790.2333469619 -2.48E-04
    15 OT DIIS     0.80E-01    4.1     0.00004528      -790.2335903986 -2.43E-04

  *** SCF run converged in    15 steps ***


  Electronic density on regular grids:       -462.9999999924        0.0000000076
  Core density on regular grids:              465.9999999681       -0.0000000319
  Total charge density on r-space grids:        2.9999999758
  Total charge density g-space grids:           2.9999999758

  Overlap energy of the core charge distribution:               0.00002551755472
  Self energy of the core charge distribution:              -1785.28427869813959
  Core Hamiltonian energy:                                    553.03609895419345
  Hartree energy:                                             654.02639286495980
  Exchange-correlation energy:                               -212.01182903716375

  Total energy:                                              -790.23359039859520

  Integrated absolute spin density  :                               5.8025611322
  Ideal and single determinant S**2 :                    0.750000       3.746433

 ENERGY| Total FORCE_EVAL ( QS ) energy (a.u.):             -790.233774127748916


 --------  Informations at step =     3 ------------
  Optimization Method        =                 BFGS
  Total Energy               =      -790.2337741277
  Real energy change         =        -0.0319900339
  Predicted change in energy =        -0.0310488442
  Scaling factor             =         0.0000000000
  Step size                  =         0.1287583512
  Trust radius               =         0.5669178399
  Decrease in energy         =                  YES
  Used time                  =               76.826

  Convergence check :
  Max. step size             =         0.1287583512
  Conv. limit for step size  =         0.1000000000
  Convergence in step size   =                   NO
  RMS step size              =         0.0305719876
  Conv. limit for RMS step   =         0.0100000000
  Convergence in RMS step    =                   NO
  Max. gradient              =         0.0127519621
  Conv. limit for gradients  =         0.1000000000
  Conv. in gradients         =                  YES
  RMS gradient               =         0.0035728221
  Conv. limit for RMS grad.  =         0.0100000000
  Conv. in RMS gradients     =                  YES
 ---------------------------------------------------

 --------------------------
 OPTIMIZATION STEP:      4
 --------------------------

 Spin 1

 Number of electrons:                                                        232
 Number of occupied orbitals:                                                232
 Number of molecular orbitals:                                               232

 Spin 2

 Number of electrons:                                                        231
 Number of occupied orbitals:                                                231
 Number of molecular orbitals:                                               231

 Number of orbital functions:                                               1550
 Number of independent orbital functions:                                   1550

 Extrapolation method: ASPC


 SCF WAVEFUNCTION OPTIMIZATION

  ----------------------------------- OT ---------------------------------------
  Minimizer      : DIIS                : direct inversion
                                         in the iterative subspace
                                         using   7 DIIS vectors
                                         safer DIIS on
  Preconditioner : FULL_SINGLE_INVERSE : inversion of 
                                         H + eS - 2*(Sc)(c^T*H*c+const)(Sc)^T
  Precond_solver : DEFAULT
  stepsize       :    0.08000000                  energy_gap     :    0.08000000
  eps_taylor     :   0.10000E-15                  max_taylor     :             4
  ----------------------------------- OT ---------------------------------------

  Step     Update method      Time    Convergence         Total energy    Change
  ------------------------------------------------------------------------------
     1 OT DIIS     0.80E-01    3.1     0.00203179      -789.7816290322 -7.90E+02
     2 OT DIIS     0.80E-01    4.0     0.00141145      -789.9749269659 -1.93E-01
     3 OT DIIS     0.80E-01    4.0     0.00124983      -790.1181698004 -1.43E-01
     4 OT DIIS     0.80E-01    4.0     0.00096703      -790.1686346329 -5.05E-02
     5 OT DIIS     0.80E-01    4.0     0.00040658      -790.2245254695 -5.59E-02
     6 OT DIIS     0.80E-01    4.1     0.00024991      -790.2404979880 -1.60E-02
     7 OT DIIS     0.80E-01    4.1     0.00023999      -790.2442640826 -3.77E-03
     8 OT DIIS     0.80E-01   11.4     0.00012987      -790.2461649883 -1.90E-03
     9 OT DIIS     0.80E-01    4.2     0.00009860      -790.2470112322 -8.46E-04
    10 OT DIIS     0.80E-01    4.1     0.00006782      -790.2475147377 -5.04E-04
    11 OT DIIS     0.80E-01    4.1     0.00005725      -790.2478272716 -3.13E-04
    12 OT DIIS     0.80E-01    4.1     0.00004438      -790.2480027255 -1.75E-04

  *** SCF run converged in    12 steps ***


  Electronic density on regular grids:       -462.9999999924        0.0000000076
  Core density on regular grids:              465.9999999681       -0.0000000319
  Total charge density on r-space grids:        2.9999999758
  Total charge density g-space grids:           2.9999999758

  Overlap energy of the core charge distribution:               0.00002580939753
  Self energy of the core charge distribution:              -1785.28427869813959
  Core Hamiltonian energy:                                    552.81510210104329
  Hartree energy:                                             654.17269387108706
  Exchange-correlation energy:                               -211.95154580884608

  Total energy:                                              -790.24800272545781

  Integrated absolute spin density  :                               5.7864380264
  Ideal and single determinant S**2 :                    0.750000       3.753309

 ENERGY| Total FORCE_EVAL ( QS ) energy (a.u.):             -790.248143073458095


 --------  Informations at step =     4 ------------
  Optimization Method        =                 BFGS
  Total Energy               =      -790.2481430735
  Real energy change         =        -0.0143689457
  Predicted change in energy =        -0.0136146673
  Scaling factor             =         0.0000000000
  Step size                  =         0.0903570636
  Trust radius               =         0.5669178399
  Decrease in energy         =                  YES
  Used time                  =               61.337

  Convergence check :
  Max. step size             =         0.0903570636
  Conv. limit for step size  =         0.1000000000
  Convergence in step size   =                  YES
  RMS step size              =         0.0266547482
  Conv. limit for RMS step   =         0.0100000000
  Convergence in RMS step    =                   NO
  Max. gradient              =         0.0254687997
  Conv. limit for gradients  =         0.1000000000
  Conv. in gradients         =                  YES
  RMS gradient               =         0.0027556096
  Conv. limit for RMS grad.  =         0.0100000000
  Conv. in RMS gradients     =                  YES
 ---------------------------------------------------

 --------------------------
 OPTIMIZATION STEP:      5
 --------------------------

 Spin 1

 Number of electrons:                                                        232
 Number of occupied orbitals:                                                232
 Number of molecular orbitals:                                               232

 Spin 2

 Number of electrons:                                                        231
 Number of occupied orbitals:                                                231
 Number of molecular orbitals:                                               231

 Number of orbital functions:                                               1550
 Number of independent orbital functions:                                   1550

 Extrapolation method: ASPC


 SCF WAVEFUNCTION OPTIMIZATION

  ----------------------------------- OT ---------------------------------------
  Minimizer      : DIIS                : direct inversion
                                         in the iterative subspace
                                         using   7 DIIS vectors
                                         safer DIIS on
  Preconditioner : FULL_SINGLE_INVERSE : inversion of 
                                         H + eS - 2*(Sc)(c^T*H*c+const)(Sc)^T
  Precond_solver : DEFAULT
  stepsize       :    0.08000000                  energy_gap     :    0.08000000
  eps_taylor     :   0.10000E-15                  max_taylor     :             4
  ----------------------------------- OT ---------------------------------------

  Step     Update method      Time    Convergence         Total energy    Change
  ------------------------------------------------------------------------------
     1 OT DIIS     0.80E-01    3.1     0.00138830      -790.0422998094 -7.90E+02
     2 OT DIIS     0.80E-01    4.0     0.00097993      -790.1323984521 -9.01E-02
     3 OT DIIS     0.80E-01    4.1     0.00105592      -790.1926537138 -6.03E-02
     4 OT DIIS     0.80E-01    4.0     0.00058371      -790.2226130149 -3.00E-02
     5 OT DIIS     0.80E-01    4.0     0.00030524      -790.2502556551 -2.76E-02
     6 OT DIIS     0.80E-01   14.7     0.00025114      -790.2565658803 -6.31E-03
     7 OT DIIS     0.80E-01   12.5     0.00015095      -790.2589742725 -2.41E-03
     8 OT DIIS     0.80E-01    4.0     0.00011284      -790.2600413548 -1.07E-03
     9 OT DIIS     0.80E-01    4.3     0.00007040      -790.2604706334 -4.29E-04
    10 OT DIIS     0.80E-01    4.0     0.00004838      -790.2608009390 -3.30E-04

  *** SCF run converged in    10 steps ***


  Electronic density on regular grids:       -462.9999999919        0.0000000081
  Core density on regular grids:              465.9999999682       -0.0000000318
  Total charge density on r-space grids:        2.9999999763
  Total charge density g-space grids:           2.9999999763

  Overlap energy of the core charge distribution:               0.00002562594853
  Self energy of the core charge distribution:              -1785.28427869813959
  Core Hamiltonian energy:                                    552.40516567290092
  Hartree energy:                                             654.44787009517177
  Exchange-correlation energy:                               -211.82958363491210

  Total energy:                                              -790.26080093903033

  Integrated absolute spin density  :                               5.8057743773
  Ideal and single determinant S**2 :                    0.750000       3.749206

 ENERGY| Total FORCE_EVAL ( QS ) energy (a.u.):             -790.260966832202712


 --------  Informations at step =     5 ------------
  Optimization Method        =                 BFGS
  Total Energy               =      -790.2609668322
  Real energy change         =        -0.0128237587
  Predicted change in energy =        -0.0115759966
  Scaling factor             =         0.0000000000
  Step size                  =         0.1300153247
  Trust radius               =         0.5669178399
  Decrease in energy         =                  YES
  Used time                  =               64.918

  Convergence check :
  Max. step size             =         0.1300153247
  Conv. limit for step size  =         0.1000000000
  Convergence in step size   =                   NO
  RMS step size              =         0.0349627961
  Conv. limit for RMS step   =         0.0100000000
  Convergence in RMS step    =                   NO
  Max. gradient              =         0.0097671268
  Conv. limit for gradients  =         0.1000000000
  Conv. in gradients         =                  YES
  RMS gradient               =         0.0023710850
  Conv. limit for RMS grad.  =         0.0100000000
  Conv. in RMS gradients     =                  YES
 ---------------------------------------------------

 --------------------------
 OPTIMIZATION STEP:      6
 --------------------------

 Spin 1

 Number of electrons:                                                        232
 Number of occupied orbitals:                                                232
 Number of molecular orbitals:                                               232

 Spin 2

 Number of electrons:                                                        231
 Number of occupied orbitals:                                                231
 Number of molecular orbitals:                                               231

 Number of orbital functions:                                               1550
 Number of independent orbital functions:                                   1550

 Extrapolation method: ASPC


 SCF WAVEFUNCTION OPTIMIZATION

  ----------------------------------- OT ---------------------------------------
  Minimizer      : DIIS                : direct inversion
                                         in the iterative subspace
                                         using   7 DIIS vectors
                                         safer DIIS on
  Preconditioner : FULL_SINGLE_INVERSE : inversion of 
                                         H + eS - 2*(Sc)(c^T*H*c+const)(Sc)^T
  Precond_solver : DEFAULT
  stepsize       :    0.08000000                  energy_gap     :    0.08000000
  eps_taylor     :   0.10000E-15                  max_taylor     :             4
  ----------------------------------- OT ---------------------------------------

  Step     Update method      Time    Convergence         Total energy    Change
  ------------------------------------------------------------------------------
     1 OT DIIS     0.80E-01    3.1     0.00092351      -790.1741828458 -7.90E+02
     2 OT DIIS     0.80E-01    4.0     0.00065362      -790.2136920943 -3.95E-02
     3 OT DIIS     0.80E-01    4.0     0.00072301      -790.2379200142 -2.42E-02
     4 OT DIIS     0.80E-01    9.3     0.00039476      -790.2523637881 -1.44E-02
     5 OT DIIS     0.80E-01    9.6     0.00024950      -790.2635301088 -1.12E-02
     6 OT DIIS     0.80E-01    9.5     0.00013677      -790.2667712552 -3.24E-03
     7 OT DIIS     0.80E-01    5.1     0.00010277      -790.2681776426 -1.41E-03
     8 OT DIIS     0.80E-01    4.0     0.00008190      -790.2686245061 -4.47E-04
     9 OT DIIS     0.80E-01    4.0     0.00005634      -790.2689284598 -3.04E-04
    10 OT DIIS     0.80E-01    4.2     0.00004555      -790.2691246996 -1.96E-04

  *** SCF run converged in    10 steps ***


  Electronic density on regular grids:       -462.9999999921        0.0000000079
  Core density on regular grids:              465.9999999681       -0.0000000319
  Total charge density on r-space grids:        2.9999999760
  Total charge density g-space grids:           2.9999999760

  Overlap energy of the core charge distribution:               0.00002502388502
  Self energy of the core charge distribution:              -1785.28427869813959
  Core Hamiltonian energy:                                    551.86963299635784
  Hartree energy:                                             654.82028253519854
  Exchange-correlation energy:                               -211.67478655694379

  Total energy:                                              -790.26912469964179

  Integrated absolute spin density  :                               5.7952423341
  Ideal and single determinant S**2 :                    0.750000       3.740369

 ENERGY| Total FORCE_EVAL ( QS ) energy (a.u.):             -790.269272045619346


 --------  Informations at step =     6 ------------
  Optimization Method        =                 BFGS
  Total Energy               =      -790.2692720456
  Real energy change         =        -0.0083052134
  Predicted change in energy =        -0.0078561932
  Scaling factor             =         0.0000000000
  Step size                  =         0.1464938163
  Trust radius               =         0.5669178399
  Decrease in energy         =                  YES
  Used time                  =               62.797

  Convergence check :
  Max. step size             =         0.1464938163
  Conv. limit for step size  =         0.1000000000
  Convergence in step size   =                   NO
  RMS step size              =         0.0352122169
  Conv. limit for RMS step   =         0.0100000000
  Convergence in RMS step    =                   NO
  Max. gradient              =         0.0086783588
  Conv. limit for gradients  =         0.1000000000
  Conv. in gradients         =                  YES
  RMS gradient               =         0.0020651950
  Conv. limit for RMS grad.  =         0.0100000000
  Conv. in RMS gradients     =                  YES
 ---------------------------------------------------

 --------------------------
 OPTIMIZATION STEP:      7
 --------------------------

 Spin 1

 Number of electrons:                                                        232
 Number of occupied orbitals:                                                232
 Number of molecular orbitals:                                               232

 Spin 2

 Number of electrons:                                                        231
 Number of occupied orbitals:                                                231
 Number of molecular orbitals:                                               231

 Number of orbital functions:                                               1550
 Number of independent orbital functions:                                   1550

 Extrapolation method: ASPC


 SCF WAVEFUNCTION OPTIMIZATION

  ----------------------------------- OT ---------------------------------------
  Minimizer      : DIIS                : direct inversion
                                         in the iterative subspace
                                         using   7 DIIS vectors
                                         safer DIIS on
  Preconditioner : FULL_SINGLE_INVERSE : inversion of 
                                         H + eS - 2*(Sc)(c^T*H*c+const)(Sc)^T
  Precond_solver : DEFAULT
  stepsize       :    0.08000000                  energy_gap     :    0.08000000
  eps_taylor     :   0.10000E-15                  max_taylor     :             4
  ----------------------------------- OT ---------------------------------------

  Step     Update method      Time    Convergence         Total energy    Change
  ------------------------------------------------------------------------------
     1 OT DIIS     0.80E-01    3.1     0.00078828      -790.2036995505 -7.90E+02
     2 OT DIIS     0.80E-01    4.0     0.00056062      -790.2329160428 -2.92E-02
     3 OT DIIS     0.80E-01    4.0     0.00054946      -790.2534975292 -2.06E-02
     4 OT DIIS     0.80E-01    4.0     0.00033734      -790.2635682364 -1.01E-02
     5 OT DIIS     0.80E-01    4.0     0.00025690      -790.2702805984 -6.71E-03
     6 OT DIIS     0.80E-01    4.0     0.00010957      -790.2729694513 -2.69E-03
     7 OT DIIS     0.80E-01    4.0     0.00008177      -790.2738251462 -8.56E-04
     8 OT DIIS     0.80E-01    4.0     0.00005904      -790.2741530381 -3.28E-04
     9 OT DIIS     0.80E-01    4.0     0.00004594      -790.2743165238 -1.63E-04

  *** SCF run converged in     9 steps ***


  Electronic density on regular grids:       -462.9999999922        0.0000000078
  Core density on regular grids:              465.9999999681       -0.0000000319
  Total charge density on r-space grids:        2.9999999760
  Total charge density g-space grids:           2.9999999760

  Overlap energy of the core charge distribution:               0.00002463299871
  Self energy of the core charge distribution:              -1785.28427869813959
  Core Hamiltonian energy:                                    551.69973417900337
  Hartree energy:                                             654.93526299270047
  Exchange-correlation energy:                               -211.62505963034911

  Total energy:                                              -790.27431652378618

  Integrated absolute spin density  :                               5.7835047168
  Ideal and single determinant S**2 :                    0.750000       3.737317

 ENERGY| Total FORCE_EVAL ( QS ) energy (a.u.):             -790.274416709271918


 --------  Informations at step =     7 ------------
  Optimization Method        =                 BFGS
  Total Energy               =      -790.2744167093
  Real energy change         =        -0.0051446637
  Predicted change in energy =        -0.0048126408
  Scaling factor             =         0.0000000000
  Step size                  =         0.0935888560
  Trust radius               =         0.5669178399
  Decrease in energy         =                  YES
  Used time                  =               41.224

  Convergence check :
  Max. step size             =         0.0935888560
  Conv. limit for step size  =         0.1000000000
  Convergence in step size   =                  YES
  RMS step size              =         0.0227817634
  Conv. limit for RMS step   =         0.0100000000
  Convergence in RMS step    =                   NO
  Max. gradient              =         0.0315289878
  Conv. limit for gradients  =         0.1000000000
  Conv. in gradients         =                  YES
  RMS gradient               =         0.0022756491
  Conv. limit for RMS grad.  =         0.0100000000
  Conv. in RMS gradients     =                  YES
 ---------------------------------------------------

 --------------------------
 OPTIMIZATION STEP:      8
 --------------------------

 Spin 1

 Number of electrons:                                                        232
 Number of occupied orbitals:                                                232
 Number of molecular orbitals:                                               232

 Spin 2

 Number of electrons:                                                        231
 Number of occupied orbitals:                                                231
 Number of molecular orbitals:                                               231

 Number of orbital functions:                                               1550
 Number of independent orbital functions:                                   1550

 Extrapolation method: ASPC


 SCF WAVEFUNCTION OPTIMIZATION

  ----------------------------------- OT ---------------------------------------
  Minimizer      : DIIS                : direct inversion
                                         in the iterative subspace
                                         using   7 DIIS vectors
                                         safer DIIS on
  Preconditioner : FULL_SINGLE_INVERSE : inversion of 
                                         H + eS - 2*(Sc)(c^T*H*c+const)(Sc)^T
  Precond_solver : DEFAULT
  stepsize       :    0.08000000                  energy_gap     :    0.08000000
  eps_taylor     :   0.10000E-15                  max_taylor     :             4
  ----------------------------------- OT ---------------------------------------

  Step     Update method      Time    Convergence         Total energy    Change
  ------------------------------------------------------------------------------
     1 OT DIIS     0.80E-01   20.2     0.00067671      -790.2256483222 -7.90E+02
     2 OT DIIS     0.80E-01   10.7     0.00049348      -790.2469810098 -2.13E-02
     3 OT DIIS     0.80E-01   11.5     0.00053500      -790.2597208172 -1.27E-02
     4 OT DIIS     0.80E-01   12.2     0.00029126      -790.2694640899 -9.74E-03
     5 OT DIIS     0.80E-01   12.2     0.00023108      -790.2741773125 -4.71E-03
     6 OT DIIS     0.80E-01   12.3     0.00010341      -790.2765064668 -2.33E-03
     7 OT DIIS     0.80E-01   12.3     0.00006503      -790.2772755290 -7.69E-04
     8 OT DIIS     0.80E-01    4.0     0.00006143      -790.2776258481 -3.50E-04
     9 OT DIIS     0.80E-01    4.0     0.00004547      -790.2777294440 -1.04E-04

  *** SCF run converged in     9 steps ***


  Electronic density on regular grids:       -462.9999999920        0.0000000080
  Core density on regular grids:              465.9999999682       -0.0000000318
  Total charge density on r-space grids:        2.9999999762
  Total charge density g-space grids:           2.9999999762

  Overlap energy of the core charge distribution:               0.00002429771742
  Self energy of the core charge distribution:              -1785.28427869813959
  Core Hamiltonian energy:                                    551.64816316037763
  Hartree energy:                                             654.96239061820791
  Exchange-correlation energy:                               -211.60402882217389

  Total energy:                                              -790.27772944401045

  Integrated absolute spin density  :                               5.7927678333
  Ideal and single determinant S**2 :                    0.750000       3.741693

 ENERGY| Total FORCE_EVAL ( QS ) energy (a.u.):             -790.277886792747267


 --------  Informations at step =     8 ------------
  Optimization Method        =                 BFGS
  Total Energy               =      -790.2778867927
  Real energy change         =        -0.0034700835
  Predicted change in energy =        -0.0066912054
  Scaling factor             =         0.0000000000
  Step size                  =         0.1293826041
  Trust radius               =         0.5669178399
  Decrease in energy         =                  YES
  Used time                  =              105.498

  Convergence check :
  Max. step size             =         0.1293826041
  Conv. limit for step size  =         0.1000000000
  Convergence in step size   =                   NO
  RMS step size              =         0.0349328210
  Conv. limit for RMS step   =         0.0100000000
  Convergence in RMS step    =                   NO
  Max. gradient              =         0.0202439014
  Conv. limit for gradients  =         0.1000000000
  Conv. in gradients         =                  YES
  RMS gradient               =         0.0026117424
  Conv. limit for RMS grad.  =         0.0100000000
  Conv. in RMS gradients     =                  YES
 ---------------------------------------------------

 --------------------------
 OPTIMIZATION STEP:      9
 --------------------------

 Spin 1

 Number of electrons:                                                        232
 Number of occupied orbitals:                                                232
 Number of molecular orbitals:                                               232

 Spin 2

 Number of electrons:                                                        231
 Number of occupied orbitals:                                                231
 Number of molecular orbitals:                                               231

 Number of orbital functions:                                               1550
 Number of independent orbital functions:                                   1550

 Extrapolation method: ASPC


 SCF WAVEFUNCTION OPTIMIZATION

  ----------------------------------- OT ---------------------------------------
  Minimizer      : DIIS                : direct inversion
                                         in the iterative subspace
                                         using   7 DIIS vectors
                                         safer DIIS on
  Preconditioner : FULL_SINGLE_INVERSE : inversion of 
                                         H + eS - 2*(Sc)(c^T*H*c+const)(Sc)^T
  Precond_solver : DEFAULT
  stepsize       :    0.08000000                  energy_gap     :    0.08000000
  eps_taylor     :   0.10000E-15                  max_taylor     :             4
  ----------------------------------- OT ---------------------------------------

  Step     Update method      Time    Convergence         Total energy    Change
  ------------------------------------------------------------------------------
     1 OT DIIS     0.80E-01    3.0     0.00050945      -790.2527311125 -7.90E+02
     2 OT DIIS     0.80E-01    4.0     0.00037782      -790.2646808149 -1.19E-02
     3 OT DIIS     0.80E-01    4.9     0.00042263      -790.2710302316 -6.35E-03
     4 OT DIIS     0.80E-01    4.0     0.00022379      -790.2771243104 -6.09E-03
     5 OT DIIS     0.80E-01    4.0     0.00017492      -790.2800692502 -2.94E-03
     6 OT DIIS     0.80E-01    4.2     0.00007630      -790.2814010691 -1.33E-03
     7 OT DIIS     0.80E-01    5.3     0.00006031      -790.2818204353 -4.19E-04
     8 OT DIIS     0.80E-01    4.0     0.00005353      -790.2819882194 -1.68E-04
     9 OT DIIS     0.80E-01    4.0     0.00003435      -790.2821177926 -1.30E-04

  *** SCF run converged in     9 steps ***


  Electronic density on regular grids:       -462.9999999924        0.0000000076
  Core density on regular grids:              465.9999999682       -0.0000000318
  Total charge density on r-space grids:        2.9999999758
  Total charge density g-space grids:           2.9999999758

  Overlap energy of the core charge distribution:               0.00002430709923
  Self energy of the core charge distribution:              -1785.28427869813959
  Core Hamiltonian energy:                                    551.67747478601814
  Hartree energy:                                             654.93166571084737
  Exchange-correlation energy:                               -211.60700389843376

  Total energy:                                              -790.28211779260869

  Integrated absolute spin density  :                               5.8224649226
  Ideal and single determinant S**2 :                    0.750000       3.743824

 ENERGY| Total FORCE_EVAL ( QS ) energy (a.u.):             -790.282214831593592


 --------  Informations at step =     9 ------------
  Optimization Method        =                 BFGS
  Total Energy               =      -790.2822148316
  Real energy change         =        -0.0043280388
  Predicted change in energy =        -0.0065521031
  Scaling factor             =         0.0000000000
  Step size                  =         0.1287943044
  Trust radius               =         0.5669178399
  Decrease in energy         =                  YES
  Used time                  =               43.428

  Convergence check :
  Max. step size             =         0.1287943044
  Conv. limit for step size  =         0.1000000000
  Convergence in step size   =                   NO
  RMS step size              =         0.0335224905
  Conv. limit for RMS step   =         0.0100000000
  Convergence in RMS step    =                   NO
  Max. gradient              =         0.0413069028
  Conv. limit for gradients  =         0.1000000000
  Conv. in gradients         =                  YES
  RMS gradient               =         0.0028577579
  Conv. limit for RMS grad.  =         0.0100000000
  Conv. in RMS gradients     =                  YES
 ---------------------------------------------------

 --------------------------
 OPTIMIZATION STEP:     10
 --------------------------

 Spin 1

 Number of electrons:                                                        232
 Number of occupied orbitals:                                                232
 Number of molecular orbitals:                                               232

 Spin 2

 Number of electrons:                                                        231
 Number of occupied orbitals:                                                231
 Number of molecular orbitals:                                               231

 Number of orbital functions:                                               1550
 Number of independent orbital functions:                                   1550

 Extrapolation method: ASPC


 SCF WAVEFUNCTION OPTIMIZATION

  ----------------------------------- OT ---------------------------------------
  Minimizer      : DIIS                : direct inversion
                                         in the iterative subspace
                                         using   7 DIIS vectors
                                         safer DIIS on
  Preconditioner : FULL_SINGLE_INVERSE : inversion of 
                                         H + eS - 2*(Sc)(c^T*H*c+const)(Sc)^T
  Precond_solver : DEFAULT
  stepsize       :    0.08000000                  energy_gap     :    0.08000000
  eps_taylor     :   0.10000E-15                  max_taylor     :             4
  ----------------------------------- OT ---------------------------------------

  Step     Update method      Time    Convergence         Total energy    Change
  ------------------------------------------------------------------------------
     1 OT DIIS     0.80E-01    3.1     0.00043229      -790.2656702005 -7.90E+02
     2 OT DIIS     0.80E-01    4.0     0.00031718      -790.2743708990 -8.70E-03
     3 OT DIIS     0.80E-01    8.4     0.00034632      -790.2796146241 -5.24E-03
     4 OT DIIS     0.80E-01    4.1     0.00020099      -790.2835776939 -3.96E-03
     5 OT DIIS     0.80E-01    4.1     0.00014602      -790.2861208311 -2.54E-03
     6 OT DIIS     0.80E-01    4.0     0.00007008      -790.2869553134 -8.34E-04
     7 OT DIIS     0.80E-01    4.3     0.00004659      -790.2873031773 -3.48E-04

  *** SCF run converged in     7 steps ***


  Electronic density on regular grids:       -462.9999999920        0.0000000080
  Core density on regular grids:              465.9999999681       -0.0000000319
  Total charge density on r-space grids:        2.9999999762
  Total charge density g-space grids:           2.9999999762

  Overlap energy of the core charge distribution:               0.00002467682933
  Self energy of the core charge distribution:              -1785.28427869813959
  Core Hamiltonian energy:                                    551.77305915466650
  Hartree energy:                                             654.86129078648833
  Exchange-correlation energy:                               -211.63739909712356

  Total energy:                                              -790.28730317727900

  Integrated absolute spin density  :                               5.8364037247
  Ideal and single determinant S**2 :                    0.750000       3.745523

 ENERGY| Total FORCE_EVAL ( QS ) energy (a.u.):             -790.287452742244113


 --------  Informations at step =    10 ------------
  Optimization Method        =                 BFGS
  Total Energy               =      -790.2874527422
  Real energy change         =        -0.0052379107
  Predicted change in energy =        -0.0054624884
  Scaling factor             =         0.0000000000
  Step size                  =         0.0836940704
  Trust radius               =         0.5669178399
  Decrease in energy         =                  YES
  Used time                  =               38.088

  Convergence check :
  Max. step size             =         0.0836940704
  Conv. limit for step size  =         0.1000000000
  Convergence in step size   =                  YES
  RMS step size              =         0.0188948881
  Conv. limit for RMS step   =         0.0100000000
  Convergence in RMS step    =                   NO
  Max. gradient              =         0.0100691913
  Conv. limit for gradients  =         0.1000000000
  Conv. in gradients         =                  YES
  RMS gradient               =         0.0021717283
  Conv. limit for RMS grad.  =         0.0100000000
  Conv. in RMS gradients     =                  YES
 ---------------------------------------------------

 --------------------------
 OPTIMIZATION STEP:     11
 --------------------------

 Spin 1

 Number of electrons:                                                        232
 Number of occupied orbitals:                                                232
 Number of molecular orbitals:                                               232

 Spin 2

 Number of electrons:                                                        231
 Number of occupied orbitals:                                                231
 Number of molecular orbitals:                                               231

 Number of orbital functions:                                               1550
 Number of independent orbital functions:                                   1550

 Extrapolation method: ASPC


 SCF WAVEFUNCTION OPTIMIZATION

  ----------------------------------- OT ---------------------------------------
  Minimizer      : DIIS                : direct inversion
                                         in the iterative subspace
                                         using   7 DIIS vectors
                                         safer DIIS on
  Preconditioner : FULL_SINGLE_INVERSE : inversion of 
                                         H + eS - 2*(Sc)(c^T*H*c+const)(Sc)^T
  Precond_solver : DEFAULT
  stepsize       :    0.08000000                  energy_gap     :    0.08000000
  eps_taylor     :   0.10000E-15                  max_taylor     :             4
  ----------------------------------- OT ---------------------------------------

  Step     Update method      Time    Convergence         Total energy    Change
  ------------------------------------------------------------------------------
     1 OT DIIS     0.80E-01    3.1     0.00057564      -790.2552886513 -7.90E+02
     2 OT DIIS     0.80E-01    4.0     0.00046557      -790.2698543790 -1.46E-02
     3 OT DIIS     0.80E-01    4.0     0.00051061      -790.2754536033 -5.60E-03
     4 OT DIIS     0.80E-01    4.1     0.00024174      -790.2849803469 -9.53E-03
     5 OT DIIS     0.80E-01    7.8     0.00017920      -790.2892944434 -4.31E-03
     6 OT DIIS     0.80E-01    4.2     0.00009497      -790.2909375141 -1.64E-03
     7 OT DIIS     0.80E-01    4.0     0.00008429      -790.2915275632 -5.90E-04
     8 OT DIIS     0.80E-01    4.1     0.00005817      -790.2917721445 -2.45E-04
     9 OT DIIS     0.80E-01    4.0     0.00003781      -790.2919624246 -1.90E-04

  *** SCF run converged in     9 steps ***


  Electronic density on regular grids:       -462.9999999920        0.0000000080
  Core density on regular grids:              465.9999999681       -0.0000000319
  Total charge density on r-space grids:        2.9999999761
  Total charge density g-space grids:           2.9999999761

  Overlap energy of the core charge distribution:               0.00002477290982
  Self energy of the core charge distribution:              -1785.28427869813959
  Core Hamiltonian energy:                                    551.73283155461445
  Hartree energy:                                             654.88431471600654
  Exchange-correlation energy:                               -211.62485477002326

  Total energy:                                              -790.29196242463217

  Integrated absolute spin density  :                               5.8255073572
  Ideal and single determinant S**2 :                    0.750000       3.745570

 ENERGY| Total FORCE_EVAL ( QS ) energy (a.u.):             -790.292080673430746


 --------  Informations at step =    11 ------------
  Optimization Method        =                 BFGS
  Total Energy               =      -790.2920806734
  Real energy change         =        -0.0046279312
  Predicted change in energy =        -0.0041380104
  Scaling factor             =         0.0000000000
  Step size                  =         0.0821650911
  Trust radius               =         0.5669178399
  Decrease in energy         =                  YES
  Used time                  =               45.386

  Convergence check :
  Max. step size             =         0.0821650911
  Conv. limit for step size  =         0.1000000000
  Convergence in step size   =                  YES
  RMS step size              =         0.0201681457
  Conv. limit for RMS step   =         0.0100000000
  Convergence in RMS step    =                   NO
  Max. gradient              =         0.0285526541
  Conv. limit for gradients  =         0.1000000000
  Conv. in gradients         =                  YES
  RMS gradient               =         0.0018358654
  Conv. limit for RMS grad.  =         0.0100000000
  Conv. in RMS gradients     =                  YES
 ---------------------------------------------------

 --------------------------
 OPTIMIZATION STEP:     12
 --------------------------

 Spin 1

 Number of electrons:                                                        232
 Number of occupied orbitals:                                                232
 Number of molecular orbitals:                                               232

 Spin 2

 Number of electrons:                                                        231
 Number of occupied orbitals:                                                231
 Number of molecular orbitals:                                               231

 Number of orbital functions:                                               1550
 Number of independent orbital functions:                                   1550

 Extrapolation method: ASPC


 SCF WAVEFUNCTION OPTIMIZATION

  ----------------------------------- OT ---------------------------------------
  Minimizer      : DIIS                : direct inversion
                                         in the iterative subspace
                                         using   7 DIIS vectors
                                         safer DIIS on
  Preconditioner : FULL_SINGLE_INVERSE : inversion of 
                                         H + eS - 2*(Sc)(c^T*H*c+const)(Sc)^T
  Precond_solver : DEFAULT
  stepsize       :    0.08000000                  energy_gap     :    0.08000000
  eps_taylor     :   0.10000E-15                  max_taylor     :             4
  ----------------------------------- OT ---------------------------------------

  Step     Update method      Time    Convergence         Total energy    Change
  ------------------------------------------------------------------------------
     1 OT DIIS     0.80E-01    3.2     0.00051739      -790.2677856001 -7.90E+02
     2 OT DIIS     0.80E-01    4.0     0.00043426      -790.2793707156 -1.16E-02
     3 OT DIIS     0.80E-01    4.0     0.00044756      -790.2836589529 -4.29E-03
     4 OT DIIS     0.80E-01    4.0     0.00021406      -790.2917867836 -8.13E-03
     5 OT DIIS     0.80E-01    4.0     0.00017016      -790.2950255822 -3.24E-03
     6 OT DIIS     0.80E-01    4.0     0.00008567      -790.2962826311 -1.26E-03
     7 OT DIIS     0.80E-01    4.0     0.00007723      -790.2967209818 -4.38E-04
     8 OT DIIS     0.80E-01    4.0     0.00004867      -790.2969179019 -1.97E-04

  *** SCF run converged in     8 steps ***


  Electronic density on regular grids:       -462.9999999923        0.0000000077
  Core density on regular grids:              465.9999999681       -0.0000000319
  Total charge density on r-space grids:        2.9999999758
  Total charge density g-space grids:           2.9999999758

  Overlap energy of the core charge distribution:               0.00002468142126
  Self energy of the core charge distribution:              -1785.28427869813959
  Core Hamiltonian energy:                                    551.66845662147477
  Hartree energy:                                             654.92156532311992
  Exchange-correlation energy:                               -211.60268582977798

  Total energy:                                              -790.29691790190157

  Integrated absolute spin density  :                               5.8185996323
  Ideal and single determinant S**2 :                    0.750000       3.746412

 ENERGY| Total FORCE_EVAL ( QS ) energy (a.u.):             -790.297059319652590


 --------  Informations at step =    12 ------------
  Optimization Method        =                 BFGS
  Total Energy               =      -790.2970593197
  Real energy change         =        -0.0049786462
  Predicted change in energy =        -0.0045418934
  Scaling factor             =         0.0000000000
  Step size                  =         0.1354085759
  Trust radius               =         0.5669178399
  Decrease in energy         =                  YES
  Used time                  =               37.642

  Convergence check :
  Max. step size             =         0.1354085759
  Conv. limit for step size  =         0.1000000000
  Convergence in step size   =                   NO
  RMS step size              =         0.0344180721
  Conv. limit for RMS step   =         0.0100000000
  Convergence in RMS step    =                   NO
  Max. gradient              =         0.0138012114
  Conv. limit for gradients  =         0.1000000000
  Conv. in gradients         =                  YES
  RMS gradient               =         0.0018180165
  Conv. limit for RMS grad.  =         0.0100000000
  Conv. in RMS gradients     =                  YES
 ---------------------------------------------------

 --------------------------
 OPTIMIZATION STEP:     13
 --------------------------

 Spin 1

 Number of electrons:                                                        232
 Number of occupied orbitals:                                                232
 Number of molecular orbitals:                                               232

 Spin 2

 Number of electrons:                                                        231
 Number of occupied orbitals:                                                231
 Number of molecular orbitals:                                               231

 Number of orbital functions:                                               1550
 Number of independent orbital functions:                                   1550

 Extrapolation method: ASPC


 SCF WAVEFUNCTION OPTIMIZATION

  ----------------------------------- OT ---------------------------------------
  Minimizer      : DIIS                : direct inversion
                                         in the iterative subspace
                                         using   7 DIIS vectors
                                         safer DIIS on
  Preconditioner : FULL_SINGLE_INVERSE : inversion of 
                                         H + eS - 2*(Sc)(c^T*H*c+const)(Sc)^T
  Precond_solver : DEFAULT
  stepsize       :    0.08000000                  energy_gap     :    0.08000000
  eps_taylor     :   0.10000E-15                  max_taylor     :             4
  ----------------------------------- OT ---------------------------------------

  Step     Update method      Time    Convergence         Total energy    Change
  ------------------------------------------------------------------------------
     1 OT DIIS     0.80E-01    3.1     0.00039566      -790.2827296021 -7.90E+02
     2 OT DIIS     0.80E-01   10.4     0.00031386      -790.2896442325 -6.91E-03
     3 OT DIIS     0.80E-01   10.5     0.00034407      -790.2924499459 -2.81E-03
     4 OT DIIS     0.80E-01   10.8     0.00017266      -790.2967645258 -4.31E-03
     5 OT DIIS     0.80E-01   11.6     0.00013202      -790.2989025986 -2.14E-03
     6 OT DIIS     0.80E-01    8.9     0.00006600      -790.2997402202 -8.38E-04
     7 OT DIIS     0.80E-01    4.0     0.00004888      -790.3000623543 -3.22E-04

  *** SCF run converged in     7 steps ***


  Electronic density on regular grids:       -462.9999999927        0.0000000073
  Core density on regular grids:              465.9999999682       -0.0000000318
  Total charge density on r-space grids:        2.9999999755
  Total charge density g-space grids:           2.9999999755

  Overlap energy of the core charge distribution:               0.00002430200086
  Self energy of the core charge distribution:              -1785.28427869813959
[...]
 flops  139 x    8 x  142              2160126720       0.0%    100.0%      0.0%
 flops  142 x    8 x  139              2160126720       0.0%    100.0%      0.0%
 flops  142 x   32 x    7              2214091264       0.0%    100.0%      0.0%
 flops  142 x    7 x   32              2214091264       0.0%    100.0%      0.0%
 flops   42 x   32 x   42              2397685248       0.0%    100.0%      0.0%
 flops  142 x   32 x    8              2530390016       0.0%    100.0%      0.0%
 flops  142 x    8 x   32              2530390016       0.0%    100.0%      0.0%
 flops   32 x    7 x  144              2766790656       0.0%    100.0%      0.0%
 flops    7 x   32 x  144              2776854528       0.0%    100.0%      0.0%
 flops  139 x    7 x  144              2875098240       0.0%    100.0%      0.0%
 flops  144 x    7 x  139              2875098240       0.0%    100.0%      0.0%
 flops   32 x   32 x    7              2891341824       0.0%    100.0%      0.0%
 flops    7 x   32 x   32              2891341824       0.0%    100.0%      0.0%
 flops   32 x    7 x   32              2891341824       0.0%    100.0%      0.0%
 flops   32 x    8 x  144              3162046464       0.0%    100.0%      0.0%
 flops   32 x   32 x    8              3169517568       0.0%    100.0%      0.0%
 flops    8 x   32 x   32              3169517568       0.0%    100.0%      0.0%
 flops   32 x    8 x   32              3169517568       0.0%    100.0%      0.0%
 flops    8 x   32 x  144              3173548032       0.0%    100.0%      0.0%
 flops  139 x    8 x  144              3285826560       0.0%    100.0%      0.0%
 flops  144 x    8 x  139              3285826560       0.0%    100.0%      0.0%
 flops  144 x    7 x   32              3367913472       0.0%    100.0%      0.0%
 flops  144 x   32 x    7              3367913472       0.0%    100.0%      0.0%
 flops  144 x    8 x   32              3849043968       0.0%    100.0%      0.0%
 flops  144 x   32 x    8              3849043968       0.0%    100.0%      0.0%
 flops    5 x   32 x   32              4651745280       0.0%    100.0%      0.0%
 flops   42 x    5 x   32              4938635520       0.0%    100.0%      0.0%
 flops    5 x   42 x   32              4938635520       0.0%    100.0%      0.0%
 flops   13 x   13 x    7              5058048996       0.0%    100.0%      0.0%
 flops   32 x    7 x  139              5341443072       0.0%    100.0%      0.0%
 flops    7 x   32 x  139              5360871936       0.0%    100.0%      0.0%
 flops    5 x    7 x   13              5377282820       0.0%    100.0%      0.0%
 flops   13 x    7 x    5              5377282820       0.0%    100.0%      0.0%
 flops  139 x    7 x  139              5550536880       0.0%    100.0%      0.0%
 flops   13 x   13 x    8              5780627424       0.0%    100.0%      0.0%
 flops    5 x    8 x   13              5940654720       0.0%    100.0%      0.0%
 flops   13 x    8 x    5              5940654720       0.0%    100.0%      0.0%
 flops   32 x    8 x  139              6104506368       0.0%    100.0%      0.0%
 flops    8 x   32 x  139              6126710784       0.0%    100.0%      0.0%
 flops  139 x    8 x  139              6343470720       0.0%    100.0%      0.0%
 flops  139 x    7 x   32              6501944064       0.0%    100.0%      0.0%
 flops  139 x   32 x    7              6501944064       0.0%    100.0%      0.0%
 flops  139 x    8 x   32              7430793216       0.0%    100.0%      0.0%
 flops  139 x   32 x    8              7430793216       0.0%    100.0%      0.0%
 flops   13 x   32 x   32             13335003136       0.0%    100.0%      0.0%
 flops   42 x   13 x   32             14157421824       0.0%    100.0%      0.0%
 flops   13 x   42 x   32             14157421824       0.0%    100.0%      0.0%
 flops    5 x    5 x   32             19241196800       0.0%    100.0%      0.0%
 flops   42 x   32 x    5             22264220160       0.0%    100.0%      0.0%
 flops    5 x   32 x   42             22264220160       0.0%    100.0%      0.0%
 flops   13 x    7 x   13             22510090876       0.0%    100.0%      0.0%
 flops   13 x    8 x   13             24863317856       0.0%    100.0%      0.0%
 flops  142 x   32 x  142             41192632320     100.0%      0.0%      0.0%
 flops  142 x   32 x  144             62659215360     100.0%      0.0%      0.0%
 flops  144 x   32 x  142             62659215360     100.0%      0.0%      0.0%
 flops   42 x   32 x   13             63824097792       0.0%    100.0%      0.0%
 flops   13 x   32 x   42             63824097792       0.0%    100.0%      0.0%
 flops    5 x   32 x    5             73645062400       0.0%    100.0%      0.0%
 flops   13 x    5 x   32             79523458560       0.0%    100.0%      0.0%
 flops    5 x   13 x   32             79615594240       0.0%    100.0%      0.0%
 flops  144 x   32 x  144             95312609280     100.0%      0.0%      0.0%
 flops   32 x   32 x  142            116833583104       0.0%    100.0%      0.0%
 flops  142 x   32 x  139            120967096320     100.0%      0.0%      0.0%
 flops  139 x   32 x  142            120967096320     100.0%      0.0%      0.0%
 flops  142 x   32 x   32            141701840896       0.0%    100.0%      0.0%
 flops   32 x   32 x  144            177718689792       0.0%    100.0%      0.0%
 flops   32 x   32 x   32            181269430272       0.0%    100.0%      0.0%
 flops  139 x   32 x  144            184006287360     100.0%      0.0%      0.0%
 flops  144 x   32 x  139            184006287360     100.0%      0.0%      0.0%
 flops  144 x   32 x   32            215546462208       0.0%    100.0%      0.0%
 flops   13 x   13 x   32            323715135744       0.0%    100.0%      0.0%
 flops   13 x   32 x    5            338411382400       0.0%    100.0%      0.0%
 flops    5 x   32 x   13            338411382400       0.0%    100.0%      0.0%
 flops   32 x   32 x  139            343095803904       0.0%    100.0%      0.0%
 flops  139 x   32 x  139            355234360320     100.0%      0.0%      0.0%
 flops  139 x   32 x   32            416124420096       0.0%    100.0%      0.0%
 flops   13 x   32 x   13           1416495808000       0.0%    100.0%      0.0%
 flops total                         5.974118E+12      20.5%     79.5%      0.0%
 flops max/rank                     84.024985E+09      19.4%     80.6%      0.0%
 matmuls inhomo. stacks                         0       0.0%      0.0%      0.0%
 matmuls total                          502499712       0.2%     99.8%      0.0%
 number of processed stacks              30326304       3.2%     96.8%      0.0%
 average stack size                                     1.0      17.1       0.0
 marketing flops                     7.907069E+12
 -------------------------------------------------------------------------------
 # multiplications                          23012
 max memory usage/rank             399.720448E+06
 # max total images/rank                        1
 # MPI messages exchanged                55689040
 # MPI messages filtered                        0
 MPI messages size (elements):
  total size                       164.049682E+09
  min size                           0.000000E+00
  max size                          20.736000E+03
  average size                       2.945816E+03
 MPI breakdown and total messages size (bytes):
             size <=      128            19165700                        0
       128 < size <=     8192            14700110              99811438720
      8192 < size <=    32768             1115510              10059872000
     32768 < size <=   131072            19213000             967467375840
    131072 < size <=  4194304             1494720             234569586080
   4194304 < size <= 16777216                   0                        0
  16777216 < size                               0                        0
 -------------------------------------------------------------------------------

 MEMORY| Estimated peak process memory [MiB]                                 382

 -------------------------------------------------------------------------------
 -                                                                             -
 -                         MESSAGE PASSING PERFORMANCE                         -
 -                                                                             -
 -------------------------------------------------------------------------------

 ROUTINE             CALLS  TOT TIME [s]  AVE VOLUME [Bytes]  PERFORMANCE [MB/s]
 MP_Group                5         0.000
 MP_Bcast            37705         1.080              56074.             1957.58
 MP_Allreduce       159644       304.557                247.                0.13
 MP_Sync               366         0.140
 MP_Alltoall        115227       489.643            2760307.              649.58
 MP_ISendRecv       546720         6.044              72192.             6530.55
 MP_Wait           3549988       465.281
 MP_comm_split         362         1.717
 MP_ISend          1603599        15.971              53208.             5342.41
 MP_IRecv          1603599         1.473              52877.            57578.26
 MP_Recv              1890         0.290             211092.             1376.56
 MP_Memory          940836         0.195
 -------------------------------------------------------------------------------


 -------------------------------------------------------------------------------
 -                                                                             -
 -                           R E F E R E N C E S                               -
 -                                                                             -
 -------------------------------------------------------------------------------
 
 CP2K version 4.1, the CP2K developers group (2016).
 CP2K is freely available from https://www.cp2k.org/ .

 Schuett, Ole; Messmer, Peter; Hutter, Juerg; VandeVondele, Joost. 
 Electronic Structure Calculations on Graphics Processing Units, John Wiley & Sons, Ltd, 173-190 (2016). 
 GPU-Accelerated Sparse Matrix-Matrix Multiplication for Linear Scaling Density Functional Theory.
 http://dx.doi.org/10.1002/9781118670712.ch8


 Borstnik, U; VandeVondele, J; Weber, V; Hutter, J. 
 PARALLEL COMPUTING, 40 (5-6), 47-58 (2014). 
 Sparse matrix multiplication: The distributed block-compressed sparse
 row library.
 http://dx.doi.org/10.1016/j.parco.2014.03.012


 Hutter, J; Iannuzzi, M; Schiffmann, F; VandeVondele, J. 
 WILEY INTERDISCIPLINARY REVIEWS-COMPUTATIONAL MOLECULAR SCIENCE, 4 (1), 15-25 (2014). 
 CP2K: atomistic simulations of condensed matter systems.
 http://dx.doi.org/10.1002/wcms.1159


 VandeVondele, J; Hutter, J. 
 JOURNAL OF CHEMICAL PHYSICS, 127 (11), 114105 (2007). 
 Gaussian basis sets for accurate calculations on molecular systems in
 gas and condensed phases.
 http://dx.doi.org/10.1063/1.2770708


 Krack, M. 
 THEORETICAL CHEMISTRY ACCOUNTS, 114 (1-3), 145-152 (2005). 
 Pseudopotentials for H to Kr optimized for gradient-corrected
 exchange-correlation functionals.
 http://dx.doi.org/10.1007/s00214-005-0655-y


 VandeVondele, J; Krack, M; Mohamed, F; Parrinello, M; Chassaing, T;
 Hutter, J. COMPUTER PHYSICS COMMUNICATIONS, 167 (2), 103-128 (2005). 
 QUICKSTEP: Fast and accurate density functional calculations using a
 mixed Gaussian and plane waves approach.
 http://dx.doi.org/10.1016/j.cpc.2004.12.014


 Frigo, M; Johnson, SG. 
 PROCEEDINGS OF THE IEEE, 93 (2), 216-231 (2005). 
 The design and implementation of FFTW3.
 http://dx.doi.org/10.1109/JPROC.2004.840301


 Kolafa, J. 
 JOURNAL OF COMPUTATIONAL CHEMISTRY, 25 (3), 335-342 (2004). 
 Time-reversible always stable predictor-corrector method for molecular dynamics of polarizable molecules.
 http://dx.doi.org/10.1002/jcc.10385


 VandeVondele, J; Hutter, J. 
 JOURNAL OF CHEMICAL PHYSICS, 118 (10), 4365-4369 (2003). 
 An efficient orbital transformation method for electronic structure
 calculations.
 http://dx.doi.org/10.1063/1.1543154


 Hartwigsen, C; Goedecker, S; Hutter, J. 
 PHYSICAL REVIEW B, 58 (7), 3641-3662 (1998). 
 Relativistic separable dual-space Gaussian pseudopotentials from H to Rn.
 http://dx.doi.org/10.1103/PhysRevB.58.3641


 Lippert, G; Hutter, J; Parrinello, M. 
 MOLECULAR PHYSICS, 92 (3), 477-487 (1997). 
 A hybrid Gaussian and plane wave density functional scheme.
 http://dx.doi.org/10.1080/002689797170220


 Perdew, JP; Burke, K; Ernzerhof, M. 
 PHYSICAL REVIEW LETTERS, 77 (18), 3865-3868 (1996). 
 Generalized gradient approximation made simple.
 http://dx.doi.org/10.1103/PhysRevLett.77.3865


 Goedecker, S; Teter, M; Hutter, J. 
 PHYSICAL REVIEW B, 54 (3), 1703-1710 (1996). 
 Separable dual-space Gaussian pseudopotentials.
 http://dx.doi.org/10.1103/PhysRevB.54.1703


 -------------------------------------------------------------------------------
 -                                                                             -
 -                                T I M I N G                                  -
 -                                                                             -
 -------------------------------------------------------------------------------
 SUBROUTINE                       CALLS  ASD         SELF TIME        TOTAL TIME
                                MAXIMUM       AVERAGE  MAXIMUM  AVERAGE  MAXIMUM
 CP2K                                 1  1.0    0.144    0.163 3117.943 3117.945
 cp_geo_opt                           1  2.0    0.001    0.001 3115.085 3115.087
 geoopt_bfgs                          1  3.0    0.080    0.093 3115.085 3115.086
 cp_eval_at                          52  4.0    0.009    0.025 3107.451 3107.469
 qs_forces                           51  5.0    0.006    0.008 3081.682 3081.714
 qs_energies                         52  6.0    0.003    0.005 2908.380 2908.447
 scf_env_do_scf                      52  7.0    0.002    0.003 2793.146 2793.315
 scf_env_do_scf_inner_loop          518  8.0    0.023    0.056 2551.077 2551.498
 rebuild_ks_matrix                  569  9.7    0.003    0.005 1695.388 1696.650
 qs_ks_build_kohn_sham_matrix       569 10.7    0.118    0.150 1695.385 1696.648
 qs_ks_update_qs_env                570  9.0    0.011    0.017 1540.119 1541.271
 pw_transfer                      19977 13.5    2.031    2.583 1235.129 1349.528
 fft_wrap_pw1pw2                  18839 14.6    0.277    0.343 1224.610 1343.418
 fft_wrap_pw1pw2_250              12005 15.7  108.106  123.987 1155.957 1254.149
 fft3d_ps                         18839 16.6  442.284  480.405  934.699 1147.188
 qs_vxc_create                      569 11.7    0.020    0.025 1017.106 1027.012
 xc_vxc_pw_create                   569 12.7   14.901   22.818 1017.086 1026.997
 rs_pw_transfer                    9215 13.4    0.183    0.229  715.745  730.663
 mp_alltoall_z22v                 18839 18.6  359.778  687.647  359.778  687.647
 qs_rho_update_rho                  570  9.1    0.009    0.016  650.270  650.887
 calculate_rho_elec                1140 10.1   18.345   26.998  650.260  650.877
 density_rs2pw                     1140 11.1    0.062    0.081  576.986  588.327
 qs_scf_new_mos                     518  9.0    0.003    0.008  573.804  574.577
 qs_scf_loop_do_ot                  518 10.0    0.002    0.004  573.801  574.574
 sum_up_and_integrate               569 11.7    4.116    4.650  551.096  554.917
 ot_scf_mini                        518 11.0    0.022    0.035  553.769  554.506
 integrate_v_rspace                1138 12.7   12.911   25.819  546.974  551.240
 potential_pw2rs                   1138 13.7    0.142    0.168  518.869  523.642
 dbcsr_multiply_generic           23012 13.9    0.349    0.360  506.791  516.310
 xc_rho_set_and_dset_create         569 13.7   13.040   15.114  466.920  504.759
 yz_to_x                           6884 17.3   45.452   55.539  236.122  404.423
 mp_waitany                      591487 15.3  249.036  399.456  249.036  399.456
 ot_mini                            518 12.0    0.003    0.010  371.074  371.829
 x_to_yz                           7399 17.9   61.037   69.633  226.295  361.218
 mp_waitall_1                   2958501 16.9  269.272  319.102  269.272  319.102
 qs_ot_get_derivative              1036 13.0    0.009    0.011  313.794  314.833
 init_scf_loop                       52  8.0    0.002    0.003  241.158  241.352
 rs_pw_transfer_PW2RS_250          1189 15.5   99.677  116.932  216.819  236.440
 rs_pw_transfer_RS2PW_250          1192 13.0   93.929  117.786  214.044  231.057
 multiply_cannon                  23012 14.9    1.479    1.618  143.348  168.594
 qs_ks_update_qs_env_forces          51  6.0    0.000    0.001  162.477  162.629
 qs_ot_get_derivative_taylor        737 14.0    0.015    0.017  154.406  155.253
 mp_sum_l                         39674 15.2  121.831  138.637  121.831  138.637
 make_m2s                         46024 14.9    0.377    0.388  118.961  134.777
 rs_pw_transfer_PW2RS_90           1138 15.7   13.208   15.425   56.460  134.750
 make_images                      46024 15.9    4.856    4.989  117.415  133.123
 qs_ot_get_p                       1140 11.8    0.005    0.007  130.812  131.912
 mp_sum_b                         39644 15.2  120.768  123.878  120.768  123.878
 make_images_sizes                46024 16.9    0.028    0.030  101.390  112.334
 mp_alltoall_i44                  46024 17.9  101.362  112.306  101.362  112.306
 mp_sum_d                         35136 14.5   64.896  108.661   64.896  108.661
 pw_scatter_p                      9675 17.1   96.279  105.742   96.279  105.742
 pw_derive                         6828 14.2   83.024   95.844   83.024   95.844
 xc_functional_eval                 569 14.7    0.010    0.014   55.552   92.571
 pbe_lsd_eval                       569 15.7   55.542   92.559   55.542   92.559
 rs_pw_transfer_PW2RS_30           1138 15.7    7.811   15.574   83.565   89.441
 pw_gather_p                       9164 16.0   82.546   87.967   82.546   87.967
 mp_sum_dv                        76491 17.0   60.310   85.386   60.310   85.386
 init_scf_run                        52  7.0    0.002    0.006   83.745   83.859
 scf_env_initial_rho_setup           52  8.0    0.001    0.003   83.744   83.858
 mp_allgather_i34                 23012 15.9   56.186   82.451   56.186   82.451
 wfi_extrapolate                     52  9.0    0.004    0.005   82.025   82.036
 prepare_preconditioner              52  9.0    0.000    0.000   79.549   79.616
 make_preconditioner                104 10.0    0.001    0.002   79.548   79.616
 qs_ot_get_derivative_diag          299 14.0    0.007    0.007   78.081   78.367
 dbcsr_matrix_colvec_multiply_l   19070 15.1    0.009    0.010   48.007   73.656
 rs_grid_zero                      6939 12.9   66.308   72.424   66.308   72.424
 rs_pw_transfer_RS2PW_30           1140 13.1    8.785   17.884   69.358   71.909
 dbcsr_arnoldi_normal_ev           1244 13.7    0.009    0.012   67.677   70.213
 multiply_cannon_metrocomm3      253132 15.9    0.190    0.200   44.565   66.721
 build_subspace                    1289 14.6    0.014    0.016   62.677   64.459
 -------------------------------------------------------------------------------

 The number of warnings for this run is : 1
 
 -------------------------------------------------------------------------------
  **** **** ******  **  PROGRAM ENDED AT                 2023-04-10 16:44:51.138
 ***** ** ***  *** **   PROGRAM RAN ON            node153.pri.kelvin2.alces.netw
 **    ****   ******    PROGRAM RAN BY                                  40265864
 ***** **    ** ** **   PROGRAM PROCESS ID                                119290
  **** **  *******  **  PROGRAM STOPPED IN /mnt/scratch2/users/40265864/MSc_ML_M
                                           M/ln_replacements/xyz/Dy_L9_L25_DMF_D
                                           MF/geometry_optimisation_2/run-0
