srun: Job 11231487 step creation temporarily disabled, retrying (Requested nodes are busy)
srun: Step created for job 11231487
 DBCSR| Multiplication driver                                               XSMM
 DBCSR| Multrec recursion limit                                              512
 DBCSR| Multiplication stack size                                           1000
 DBCSR| Maximum elements for images                                    UNLIMITED
 DBCSR| Multiplicative factor virtual images                                   1
 DBCSR| Randmat seed                                                    12341313
 DBCSR| Multiplication size stacks                                             3
 DBCSR| Number of 3D layers                                               SINGLE
 DBCSR| Use MPI memory allocation                                              T
 DBCSR| Use RMA algorithm                                                      F
 DBCSR| Use Communication thread                                               T
 DBCSR| Communication thread load                                             87


  **** **** ******  **  PROGRAM STARTED AT               2023-02-20 22:09:11.074
 ***** ** ***  *** **   PROGRAM STARTED ON        node138.pri.kelvin2.alces.netw
 **    ****   ******    PROGRAM STARTED BY                              40265864
 ***** **    ** ** **   PROGRAM PROCESS ID                                 16299
  **** **  *******  **  PROGRAM STARTED IN /mnt/scratch2/users/40265864/MSc_ML_M
                                           M/ln_replacements/xyz/Gd_L6_O_O_O_O/p
                                           relim_energy/run-4

 CP2K| version string:                                          CP2K version 4.1
 CP2K| source code revision number:                                    svn:17462
 CP2K| cp2kflags: libint fftw3 libxc parallel mpi3 scalapack libxsmm libderiv_ma
 CP2K|            x_am1=5 libint_max_am=6
 CP2K| is freely available from                            https://www.cp2k.org/
 CP2K| Program compiled at                          Mon 24 Oct 18:14:20 BST 2022
 CP2K| Program compiled on                      login1.pri.kelvin2.alces.network
 CP2K| Program compiled for                                                local
 CP2K| Data directory path                      /users/40265864/source/cp2k/data
 CP2K| Input file name                                               geo-opt.inp

 GLOBAL| Force Environment number                                              1
 GLOBAL| Basis set file name                                 ../BASIS_MOLOPT_UCL
 GLOBAL| Potential file name                                        ../POTENTIAL
 GLOBAL| MM Potential file name                                     MM_POTENTIAL
 GLOBAL| Coordinate file name                            ../../Gd_L6_O_O_O_O.xyz
 GLOBAL| Method name                                                        CP2K
 GLOBAL| Project name                                              Gd_L6_O_O_O_O
 GLOBAL| Preferred FFT library                                             FFTW3
 GLOBAL| Preferred diagonalization lib.                                       SL
 GLOBAL| Run type                                                   ENERGY_FORCE
 GLOBAL| All-to-all communication in single precision                          F
 GLOBAL| FFTs using library dependent lengths                                  F
 GLOBAL| Global print level                                                  LOW
 GLOBAL| Total number of message passing processes                           121
 GLOBAL| Number of threads for this process                                    1
 GLOBAL| This output is from process                                           0
 GLOBAL| CPU model name :  AMD EPYC 7702 64-Core Processor

 MEMORY| system memory details [Kb]
 MEMORY|                        rank 0           min           max       average
 MEMORY| MemTotal            792056776     792056776     792056776     792056776
 MEMORY| MemFree             733176528     733176528     733177536     733176977
 MEMORY| Buffers                177084        177084        177084        177084
 MEMORY| Cached               34255916      34255916      34255916      34255916
 MEMORY| Slab                  5107812       5107812       5107812       5107812
 MEMORY| SReclaimable          1770820       1770820       1770820       1770820
 MEMORY| MemLikelyFree       769380348     769380348     769381356     769380797


 GENERATE|  Preliminary Number of Bonds generated:                             0
 GENERATE|  Achieved consistency in connectivity generation.

 *******************************************************************************
 *******************************************************************************
 **                                                                           **
 **     #####                         ##              ##                      **
 **    ##   ##            ##          ##              ##                      **
 **   ##     ##                       ##            ######                    **
 **   ##     ##  ##   ##  ##   #####  ##  ##   ####   ##    #####    #####    **
 **   ##     ##  ##   ##  ##  ##      ## ##   ##      ##   ##   ##  ##   ##   **
 **   ##  ## ##  ##   ##  ##  ##      ####     ###    ##   ######   ######    **
 **    ##  ###   ##   ##  ##  ##      ## ##      ##   ##   ##       ##        **
 **     #######   #####   ##   #####  ##  ##  ####    ##    #####   ##        **
 **           ##                                                    ##        **
 **                                                                           **
 **                                                ... make the atoms dance   **
 **                                                                           **
 **            Copyright (C) by CP2K developers group (2000 - 2016)           **
 **                                                                           **
 *******************************************************************************


 SCF PARAMETERS         Density guess:                                   RESTART
                        --------------------------------------------------------
                        max_scf:                                              50
                        max_scf_history:                                       0
                        max_diis:                                              4
                        --------------------------------------------------------
                        eps_scf:                                        5.00E-07
                        eps_scf_history:                                0.00E+00
                        eps_diis:                                       1.00E-01
                        eps_eigval:                                     1.00E-05
                        --------------------------------------------------------
                        level_shift [a.u.]:                                 0.00
                        --------------------------------------------------------
                        Outer loop SCF in use 
                        No variables optimised in outer loop
                        eps_scf                                         5.00E-07
                        max_scf                                               20
                        No outer loop optimization
                        step_size                                       5.00E-01

 Spin 1

 Number of electrons:                                                        525
 Number of occupied orbitals:                                                525
 Number of molecular orbitals:                                               525

 Spin 2

 Number of electrons:                                                        522
 Number of occupied orbitals:                                                522
 Number of molecular orbitals:                                               522

 Number of orbital functions:                                               3702
 Number of independent orbital functions:                                   3702

 Extrapolation method: initial_guess

 *** WARNING in qs_initial_guess.F:262 :: User requested to restart the    ***
 *** wavefunction from the file named: Gd_L6_O_O_O_O-RESTART.wfn. This     ***
 *** file does not exist. Please check the existence of the file or change ***
 *** properly the value of the keyword WFN_RESTART_FILE_NAME. Calculation  ***
 *** continues using ATOMIC GUESS.                                         ***



 SCF WAVEFUNCTION OPTIMIZATION

  ----------------------------------- OT ---------------------------------------
  Minimizer      : DIIS                : direct inversion
                                         in the iterative subspace
                                         using   7 DIIS vectors
                                         safer DIIS on
  Preconditioner : FULL_KINETIC        : inversion of T + eS
  Precond_solver : DEFAULT
  stepsize       :    0.15000000                  energy_gap     :    0.20000000
  eps_taylor     :   0.10000E-15                  max_taylor     :             4
  ----------------------------------- OT ---------------------------------------

  Step     Update method      Time    Convergence         Total energy    Change
  ------------------------------------------------------------------------------
     1 OT DIIS     0.15E+00    8.9     0.00710600     -1419.4946903123 -1.42E+03
     2 OT DIIS     0.15E+00   11.0     0.00501338     -1443.7151534366 -2.42E+01
     3 OT DIIS     0.15E+00   11.1     0.00368503     -1464.5444778069 -2.08E+01
     4 OT DIIS     0.15E+00   11.1     0.00283004     -1481.7352668143 -1.72E+01
     5 OT DIIS     0.15E+00   11.0     0.00227991     -1493.6526197287 -1.19E+01
     6 OT DIIS     0.15E+00   11.0     0.00181877     -1503.1957228515 -9.54E+00
     7 OT DIIS     0.15E+00   11.1     0.00142725     -1510.2946770529 -7.10E+00
     8 OT DIIS     0.15E+00   11.1     0.00112336     -1515.2568609489 -4.96E+00
     9 OT DIIS     0.15E+00   11.0     0.00094160     -1517.9337644748 -2.68E+00
    10 OT DIIS     0.15E+00   11.1     0.00077730     -1520.0179694308 -2.08E+00
    11 OT DIIS     0.15E+00   18.6     0.00065560     -1521.5347512723 -1.52E+00
    12 OT DIIS     0.15E+00   11.4     0.00054383     -1522.7730040913 -1.24E+00
    13 OT DIIS     0.15E+00   11.3     0.00048333     -1523.4440877947 -6.71E-01
    14 OT DIIS     0.15E+00   11.3     0.00040574     -1524.2158343566 -7.72E-01
    15 OT DIIS     0.15E+00   11.3     0.00036079     -1524.6451428061 -4.29E-01
    16 OT DIIS     0.15E+00   11.3     0.00030723     -1525.1231831988 -4.78E-01
    17 OT DIIS     0.15E+00   11.3     0.00026437     -1525.4831308023 -3.60E-01
    18 OT DIIS     0.15E+00   11.2     0.00023636     -1525.7060095642 -2.23E-01
    19 OT DIIS     0.15E+00   11.2     0.00020945     -1525.9064064198 -2.00E-01
    20 OT DIIS     0.15E+00   11.1     0.00018821     -1526.0638209944 -1.57E-01
    21 OT DIIS     0.15E+00   11.0     0.00016948     -1526.1907011498 -1.27E-01
    22 OT DIIS     0.15E+00   11.0     0.00014747     -1526.3141147513 -1.23E-01
    23 OT DIIS     0.15E+00   11.0     0.00013687     -1526.3860766551 -7.20E-02
    24 OT DIIS     0.15E+00   11.1     0.00013336     -1526.4572086875 -7.11E-02
    25 OT DIIS     0.15E+00   11.1     0.00012544     -1526.4987072673 -4.15E-02
    26 OT DIIS     0.15E+00   11.0     0.00012044     -1526.5455899198 -4.69E-02
    27 OT DIIS     0.15E+00   11.2     0.00011525     -1526.5726099567 -2.70E-02
    28 OT DIIS     0.15E+00   11.0     0.00010202     -1526.6502758074 -7.77E-02
    29 OT DIIS     0.15E+00   11.0     0.00009384     -1526.7029506586 -5.27E-02
    30 OT DIIS     0.15E+00   11.0     0.00008736     -1526.7419854023 -3.90E-02
    31 OT DIIS     0.15E+00   11.1     0.00008344     -1526.7700198727 -2.80E-02
    32 OT DIIS     0.15E+00   11.0     0.00007628     -1526.8201652377 -5.01E-02
    33 OT DIIS     0.15E+00   11.0     0.00007494     -1526.8316406484 -1.15E-02
    34 OT SD       0.15E+00   11.0     0.00007432     -1526.8445725303 -1.29E-02
    35 OT DIIS     0.15E+00   11.0     0.00007350     -1526.8477648283 -3.19E-03
    36 OT DIIS     0.15E+00   11.0     0.00006661     -1526.9028906980 -5.51E-02
    37 OT DIIS     0.15E+00   11.8     0.00006354     -1526.9283530916 -2.55E-02
    38 OT DIIS     0.15E+00   11.1     0.00006115     -1526.9476529905 -1.93E-02
    39 OT DIIS     0.15E+00   11.0     0.00005774     -1526.9745779071 -2.69E-02
    40 OT SD       0.15E+00   11.0     0.00005588     -1526.9912961794 -1.67E-02
    41 OT DIIS     0.15E+00   11.0     0.00005542     -1526.9931032147 -1.81E-03
    42 OT DIIS     0.15E+00   11.1     0.00005422     -1527.0118479171 -1.87E-02
    43 OT DIIS     0.15E+00   11.1     0.00005289     -1527.0201690883 -8.32E-03
    44 OT SD       0.15E+00   11.1     0.00005376     -1527.0304147982 -1.02E-02
    45 OT DIIS     0.15E+00   11.2     0.00005310     -1527.0320816152 -1.67E-03
    46 OT DIIS     0.15E+00   11.0     0.00005176     -1527.0374086425 -5.33E-03
    47 OT DIIS     0.15E+00   11.0     0.00005172     -1527.0436826775 -6.27E-03
    48 OT SD       0.15E+00   11.1     0.00005158     -1527.0445414217 -8.59E-04
    49 OT DIIS     0.15E+00   11.1     0.00005152     -1527.0460871682 -1.55E-03
    50 OT DIIS     0.15E+00   11.1     0.00005129     -1527.0526086198 -6.52E-03

  Leaving inner SCF loop after reaching    50 steps.


  Electronic density on regular grids:      -1046.9999999781        0.0000000219
  Core density on regular grids:             1049.9999999271       -0.0000000729
  Total charge density on r-space grids:        2.9999999490
  Total charge density g-space grids:           2.9999999490

  Overlap energy of the core charge distribution:               0.00009108160821
  Self energy of the core charge distribution:              -3603.95462265793367
  Core Hamiltonian energy:                                   1131.04849102174899
  Hartree energy:                                            1410.39628455047114
  Exchange-correlation energy:                               -464.54285261569407

  Total energy:                                             -1527.05260861979900

  outer SCF iter =    1 RMS gradient =   0.51E-04 energy =      -1527.0526086198

  ----------------------------------- OT ---------------------------------------
  Minimizer      : DIIS                : direct inversion
                                         in the iterative subspace
                                         using   7 DIIS vectors
                                         safer DIIS on
  Preconditioner : FULL_KINETIC        : inversion of T + eS
  Precond_solver : DEFAULT
  stepsize       :    0.15000000                  energy_gap     :    0.20000000
  eps_taylor     :   0.10000E-15                  max_taylor     :             4
  ----------------------------------- OT ---------------------------------------

  Step     Update method      Time    Convergence         Total energy    Change
  ------------------------------------------------------------------------------
     1 OT DIIS     0.15E+00   22.4     0.00009362     -1527.0534761862 -8.68E-04
     2 OT DIIS     0.15E+00   10.9     0.00008499     -1527.0583252504 -4.85E-03
     3 OT DIIS     0.15E+00   10.9     0.00006071     -1527.0763014268 -1.80E-02
     4 OT DIIS     0.15E+00   10.9     0.00005271     -1527.0867169956 -1.04E-02
     5 OT DIIS     0.15E+00   11.0     0.00004915     -1527.0948456699 -8.13E-03
     6 OT DIIS     0.15E+00   11.0     0.00004702     -1527.1024953524 -7.65E-03
     7 OT DIIS     0.15E+00   11.0     0.00004586     -1527.1095990972 -7.10E-03
     8 OT DIIS     0.15E+00   11.0     0.00004510     -1527.1174260328 -7.83E-03
     9 OT DIIS     0.15E+00   11.0     0.00004460     -1527.1257003016 -8.27E-03
    10 OT DIIS     0.15E+00   11.0     0.00004438     -1527.1325570525 -6.86E-03
    11 OT DIIS     0.15E+00   11.1     0.00004432     -1527.1374842527 -4.93E-03
    12 OT SD       0.15E+00   11.0     0.00004432     -1527.1390676193 -1.58E-03
    13 OT SD       0.15E+00   11.0     0.00004433     -1527.1402099435 -1.14E-03
    14 OT SD       0.15E+00   11.0     0.00004435     -1527.1413528774 -1.14E-03
    15 OT SD       0.15E+00   11.0     0.00004436     -1527.1424965525 -1.14E-03
    16 OT SD       0.15E+00   11.0     0.00004438     -1527.1436410623 -1.14E-03
    17 OT SD       0.15E+00   11.0     0.00004440     -1527.1447864795 -1.15E-03
    18 OT DIIS     0.15E+00   11.0     0.00004442     -1527.1459328630 -1.15E-03
    19 OT SD       0.15E+00   11.0     0.00004735     -1527.1526659415 -6.73E-03
    20 OT SD       0.15E+00   11.0     0.00004693     -1527.1539624283 -1.30E-03
    21 OT SD       0.15E+00   11.0     0.00004673     -1527.1552396654 -1.28E-03
    22 OT SD       0.15E+00   11.0     0.00004662     -1527.1565076988 -1.27E-03
    23 OT SD       0.15E+00   10.9     0.00004655     -1527.1577704922 -1.26E-03
    24 OT SD       0.15E+00   11.0     0.00004650     -1527.1590298378 -1.26E-03
    25 OT DIIS     0.15E+00   11.0     0.00004647     -1527.1602866582 -1.26E-03
    26 OT DIIS     0.15E+00   11.1     0.00004602     -1527.1878240085 -2.75E-02
    27 OT DIIS     0.15E+00   11.1     0.00004566     -1527.2034901490 -1.57E-02
    28 OT DIIS     0.15E+00   11.1     0.00004538     -1527.2111057503 -7.62E-03
    29 OT DIIS     0.15E+00   11.1     0.00004337     -1527.2347815353 -2.37E-02
    30 OT DIIS     0.15E+00   11.1     0.00003713     -1527.2671678207 -3.24E-02
    31 OT DIIS     0.15E+00   11.1     0.00003574     -1527.2677907456 -6.23E-04
    32 OT DIIS     0.15E+00   11.1     0.00003128     -1527.2838966903 -1.61E-02
    33 OT DIIS     0.15E+00   11.0     0.00002879     -1527.2882042554 -4.31E-03
    34 OT DIIS     0.15E+00   11.0     0.00002775     -1527.2909092443 -2.70E-03
    35 OT DIIS     0.15E+00   11.1     0.00002685     -1527.2949504412 -4.04E-03
    36 OT SD       0.15E+00   11.1     0.00002665     -1527.2975191941 -2.57E-03
    37 OT DIIS     0.15E+00   11.1     0.00002657     -1527.2979312579 -4.12E-04
    38 OT SD       0.15E+00   11.1     0.00002653     -1527.2993386654 -1.41E-03
    39 OT SD       0.15E+00   11.1     0.00002654     -1527.2997478409 -4.09E-04
    40 OT SD       0.15E+00   11.1     0.00002656     -1527.3001573888 -4.10E-04
    41 OT SD       0.15E+00   11.1     0.00002659     -1527.3005676841 -4.10E-04
    42 OT SD       0.15E+00   11.1     0.00002663     -1527.3009789909 -4.11E-04
    43 OT SD       0.15E+00   11.1     0.00002667     -1527.3013915179 -4.13E-04
    44 OT SD       0.15E+00   11.1     0.00002672     -1527.3018054390 -4.14E-04
    45 OT SD       0.15E+00   11.0     0.00002677     -1527.3022209043 -4.15E-04
    46 OT SD       0.15E+00   11.1     0.00002683     -1527.3026380457 -4.17E-04
    47 OT SD       0.15E+00   11.1     0.00002689     -1527.3030569816 -4.19E-04
    48 OT SD       0.15E+00   11.1     0.00002695     -1527.3034778193 -4.21E-04
    49 OT SD       0.15E+00   11.1     0.00002702     -1527.3039006573 -4.23E-04
    50 OT SD       0.15E+00   11.1     0.00002709     -1527.3043255867 -4.25E-04

  Leaving inner SCF loop after reaching    50 steps.


  Electronic density on regular grids:      -1046.9999999763        0.0000000237
  Core density on regular grids:             1049.9999999271       -0.0000000729
  Total charge density on r-space grids:        2.9999999508
  Total charge density g-space grids:           2.9999999508

  Overlap energy of the core charge distribution:               0.00009108160821
  Self energy of the core charge distribution:              -3603.95462265793367
  Core Hamiltonian energy:                                   1131.30252601732809
  Hartree energy:                                            1410.12544383676504
  Exchange-correlation energy:                               -464.77776386445004

  Total energy:                                             -1527.30432558668235

  outer SCF iter =    2 RMS gradient =   0.27E-04 energy =      -1527.3043255867

  ----------------------------------- OT ---------------------------------------
  Minimizer      : DIIS                : direct inversion
                                         in the iterative subspace
                                         using   7 DIIS vectors
                                         safer DIIS on
  Preconditioner : FULL_KINETIC        : inversion of T + eS
  Precond_solver : DEFAULT
  stepsize       :    0.15000000                  energy_gap     :    0.20000000
  eps_taylor     :   0.10000E-15                  max_taylor     :             4
  ----------------------------------- OT ---------------------------------------

  Step     Update method      Time    Convergence         Total energy    Change
  ------------------------------------------------------------------------------
     1 OT DIIS     0.15E+00   22.6     0.00003277     -1527.3047526924 -4.27E-04
     2 OT DIIS     0.15E+00   10.9     0.00003195     -1527.3053683155 -6.16E-04
     3 OT DIIS     0.15E+00   11.0     0.00003029     -1527.3080993661 -2.73E-03
     4 OT DIIS     0.15E+00   10.9     0.00002989     -1527.3105273474 -2.43E-03
     5 OT SD       0.15E+00   10.9     0.00002986     -1527.3149039195 -4.38E-03
     6 OT SD       0.15E+00   10.9     0.00002986     -1527.3154221880 -5.18E-04
     7 OT SD       0.15E+00   10.9     0.00002989     -1527.3159408093 -5.19E-04
     8 OT SD       0.15E+00   10.9     0.00002992     -1527.3164604486 -5.20E-04
     9 OT SD       0.15E+00   10.9     0.00002997     -1527.3169814420 -5.21E-04
    10 OT SD       0.15E+00   11.0     0.00003002     -1527.3175039961 -5.23E-04
    11 OT SD       0.15E+00   11.0     0.00003007     -1527.3180282610 -5.24E-04
    12 OT SD       0.15E+00   10.9     0.00003012     -1527.3185543607 -5.26E-04
    13 OT SD       0.15E+00   10.9     0.00003018     -1527.3190824053 -5.28E-04
    14 OT SD       0.15E+00   10.9     0.00003024     -1527.3196124970 -5.30E-04
    15 OT SD       0.15E+00   10.9     0.00003030     -1527.3201447320 -5.32E-04
    16 OT SD       0.15E+00   10.9     0.00003037     -1527.3206792027 -5.34E-04
    17 OT SD       0.15E+00   11.0     0.00003044     -1527.3212159976 -5.37E-04
    18 OT SD       0.15E+00   10.9     0.00003051     -1527.3217552021 -5.39E-04
    19 OT SD       0.15E+00   10.9     0.00003058     -1527.3222968982 -5.42E-04
    20 OT SD       0.15E+00   10.9     0.00003065     -1527.3228411655 -5.44E-04
    21 OT SD       0.15E+00   10.8     0.00003073     -1527.3233880804 -5.47E-04
    22 OT SD       0.15E+00   11.0     0.00003081     -1527.3239377170 -5.50E-04
    23 OT SD       0.15E+00   10.9     0.00003088     -1527.3244901464 -5.52E-04
    24 OT SD       0.15E+00   10.9     0.00003097     -1527.3250454377 -5.55E-04
    25 OT SD       0.15E+00   11.0     0.00003105     -1527.3256036572 -5.58E-04
    26 OT SD       0.15E+00   10.9     0.00003113     -1527.3261648689 -5.61E-04
    27 OT SD       0.15E+00   10.9     0.00003122     -1527.3267291346 -5.64E-04
    28 OT SD       0.15E+00   10.9     0.00003130     -1527.3272965136 -5.67E-04
    29 OT SD       0.15E+00   10.9     0.00003139     -1527.3278670632 -5.71E-04
    30 OT SD       0.15E+00   10.9     0.00003148     -1527.3284408385 -5.74E-04
    31 OT SD       0.15E+00   10.9     0.00003157     -1527.3290178923 -5.77E-04
    32 OT SD       0.15E+00   11.0     0.00003166     -1527.3295982755 -5.80E-04
    33 OT SD       0.15E+00   10.9     0.00003176     -1527.3301820369 -5.84E-04
    34 OT SD       0.15E+00   10.9     0.00003185     -1527.3307692233 -5.87E-04
    35 OT SD       0.15E+00   10.9     0.00003194     -1527.3313598796 -5.91E-04
    36 OT SD       0.15E+00   11.3     0.00003204     -1527.3319540359 -5.94E-04
    37 OT SD       0.15E+00   10.9     0.00003214     -1527.3325517552 -5.98E-04
    38 OT SD       0.15E+00   11.0     0.00003223     -1527.3331530671 -6.01E-04
    39 OT SD       0.15E+00   11.0     0.00003233     -1527.3337580091 -6.05E-04
    40 OT SD       0.15E+00   11.0     0.00003243     -1527.3343666167 -6.09E-04
    41 OT SD       0.15E+00   10.9     0.00003253     -1527.3349789240 -6.12E-04
    42 OT SD       0.15E+00   11.0     0.00003263     -1527.3355949632 -6.16E-04
    43 OT SD       0.15E+00   11.0     0.00003273     -1527.3362147649 -6.20E-04
    44 OT SD       0.15E+00   11.0     0.00003283     -1527.3368383582 -6.24E-04
    45 OT SD       0.15E+00   11.0     0.00003293     -1527.3374657708 -6.27E-04
    46 OT SD       0.15E+00   11.5     0.00003303     -1527.3380970286 -6.31E-04
    47 OT SD       0.15E+00   11.0     0.00003313     -1527.3387321564 -6.35E-04
    48 OT SD       0.15E+00   11.0     0.00003323     -1527.3393711773 -6.39E-04
    49 OT SD       0.15E+00   11.0     0.00003333     -1527.3400140983 -6.43E-04
    50 OT SD       0.15E+00   11.0     0.00003343     -1527.3406609671 -6.47E-04

  Leaving inner SCF loop after reaching    50 steps.


  Electronic density on regular grids:      -1046.9999999781        0.0000000219
  Core density on regular grids:             1049.9999999271       -0.0000000729
  Total charge density on r-space grids:        2.9999999489
  Total charge density g-space grids:           2.9999999489

  Overlap energy of the core charge distribution:               0.00009108160821
  Self energy of the core charge distribution:              -3603.95462265793367
  Core Hamiltonian energy:                                   1131.29126215920837
  Hartree energy:                                            1410.12985675662912
  Exchange-correlation energy:                               -464.80724830660029

  Total energy:                                             -1527.34066096708807

  outer SCF iter =    3 RMS gradient =   0.33E-04 energy =      -1527.3406609671

  ----------------------------------- OT ---------------------------------------
  Minimizer      : DIIS                : direct inversion
                                         in the iterative subspace
                                         using   7 DIIS vectors
                                         safer DIIS on
  Preconditioner : FULL_KINETIC        : inversion of T + eS
  Precond_solver : DEFAULT
  stepsize       :    0.15000000                  energy_gap     :    0.20000000
  eps_taylor     :   0.10000E-15                  max_taylor     :             4
  ----------------------------------- OT ---------------------------------------

  Step     Update method      Time    Convergence         Total energy    Change
  ------------------------------------------------------------------------------
     1 OT DIIS     0.15E+00   22.3     0.00003163     -1527.3413117906 -6.51E-04
     2 OT DIIS     0.15E+00   15.1     0.00003136     -1527.3418905271 -5.79E-04
     3 OT DIIS     0.15E+00   11.8     0.00003096     -1527.3440978498 -2.21E-03
     4 OT DIIS     0.15E+00   11.0     0.00003093     -1527.3457993629 -1.70E-03
     5 OT SD       0.15E+00   11.3     0.00003096     -1527.3464284324 -6.29E-04
     6 OT SD       0.15E+00   16.1     0.00003098     -1527.3469858859 -5.57E-04
     7 OT SD       0.15E+00   11.9     0.00003101     -1527.3475441734 -5.58E-04
     8 OT SD       0.15E+00   11.0     0.00003104     -1527.3481034427 -5.59E-04
     9 OT SD       0.15E+00   10.9     0.00003107     -1527.3486638122 -5.60E-04
    10 OT SD       0.15E+00   10.9     0.00003111     -1527.3492253826 -5.62E-04
    11 OT SD       0.15E+00   10.9     0.00003114     -1527.3497882419 -5.63E-04
    12 OT SD       0.15E+00   10.9     0.00003118     -1527.3503524683 -5.64E-04
    13 OT SD       0.15E+00   10.9     0.00003122     -1527.3509181320 -5.66E-04
    14 OT SD       0.15E+00   10.9     0.00003127     -1527.3514852971 -5.67E-04
    15 OT SD       0.15E+00   10.9     0.00003131     -1527.3520540217 -5.69E-04
    16 OT SD       0.15E+00   10.9     0.00003135     -1527.3526243596 -5.70E-04
    17 OT SD       0.15E+00   10.9     0.00003140     -1527.3531963606 -5.72E-04
    18 OT SD       0.15E+00   10.9     0.00003145     -1527.3537700709 -5.74E-04
    19 OT SD       0.15E+00   10.9     0.00003150     -1527.3543455336 -5.75E-04
    20 OT SD       0.15E+00   10.9     0.00003155     -1527.3549227895 -5.77E-04
    21 OT SD       0.15E+00   11.0     0.00003160     -1527.3555018766 -5.79E-04
    22 OT SD       0.15E+00   10.9     0.00003165     -1527.3560828310 -5.81E-04
    23 OT SD       0.15E+00   10.9     0.00003170     -1527.3566656870 -5.83E-04
    24 OT SD       0.15E+00   10.9     0.00003175     -1527.3572504769 -5.85E-04
    25 OT SD       0.15E+00   10.9     0.00003181     -1527.3578372317 -5.87E-04
    26 OT SD       0.15E+00   10.9     0.00003186     -1527.3584259809 -5.89E-04
    27 OT SD       0.15E+00   10.9     0.00003192     -1527.3590167527 -5.91E-04
    28 OT DIIS     0.15E+00   11.2     0.00003197     -1527.3596095740 -5.93E-04
    29 OT DIIS     0.15E+00   11.1     0.00065627     -1527.0039573235  3.56E-01
    30 OT SD       0.15E+00   11.2     0.00007370     -1527.3629314309 -3.59E-01
    31 OT SD       0.15E+00   11.1     0.00005753     -1527.3657023783 -2.77E-03
    32 OT SD       0.15E+00   11.1     0.00005017     -1527.3674855339 -1.78E-03
    33 OT SD       0.15E+00   11.1     0.00004670     -1527.3688905795 -1.41E-03
    34 OT SD       0.15E+00   11.1     0.00004493     -1527.3701311782 -1.24E-03
    35 OT DIIS     0.15E+00   11.1     0.00004395     -1527.3712905314 -1.16E-03
    36 OT SD       0.15E+00   11.1     0.00004383     -1527.3952563450 -2.40E-02
    37 OT SD       0.15E+00   11.1     0.00004329     -1527.3963645153 -1.11E-03
    38 OT SD       0.15E+00   11.1     0.00004309     -1527.3974508515 -1.09E-03
    39 OT SD       0.15E+00   11.1     0.00004300     -1527.3985289810 -1.08E-03
    40 OT SD       0.15E+00   11.1     0.00004295     -1527.3996033193 -1.07E-03
    41 OT DIIS     0.15E+00   11.1     0.00004292     -1527.4006754678 -1.07E-03
    42 OT DIIS     0.15E+00   11.2     0.00004353     -1527.4147186644 -1.40E-02
    43 OT DIIS     0.15E+00   11.1     0.00004247     -1527.4202634459 -5.54E-03
    44 OT SD       0.15E+00   11.1     0.00004246     -1527.4310876548 -1.08E-02
    45 OT DIIS     0.15E+00   11.1     0.00004232     -1527.4321337724 -1.05E-03
    46 OT SD       0.15E+00   11.0     0.00004220     -1527.4437549521 -1.16E-02
    47 OT DIIS     0.15E+00   11.0     0.00004204     -1527.4447881793 -1.03E-03
    48 OT DIIS     0.15E+00   11.0     0.00004126     -1527.4611226832 -1.63E-02
    49 OT DIIS     0.15E+00   11.1     0.00003898     -1527.4786241585 -1.75E-02
    50 OT DIIS     0.15E+00   11.1     0.00003420     -1527.4968804243 -1.83E-02

  Leaving inner SCF loop after reaching    50 steps.


  Electronic density on regular grids:      -1046.9999999416        0.0000000584
  Core density on regular grids:             1049.9999999271       -0.0000000729
  Total charge density on r-space grids:        2.9999999855
  Total charge density g-space grids:           2.9999999855

  Overlap energy of the core charge distribution:               0.00009108160821
  Self energy of the core charge distribution:              -3603.95462265793367
  Core Hamiltonian energy:                                   1130.91806765655838
  Hartree energy:                                            1410.46480284520612
  Exchange-correlation energy:                               -464.92521934970455

  Total energy:                                             -1527.49688042426533

  outer SCF iter =    4 RMS gradient =   0.34E-04 energy =      -1527.4968804243

  ----------------------------------- OT ---------------------------------------
  Minimizer      : DIIS                : direct inversion
                                         in the iterative subspace
                                         using   7 DIIS vectors
                                         safer DIIS on
  Preconditioner : FULL_KINETIC        : inversion of T + eS
  Precond_solver : DEFAULT
  stepsize       :    0.15000000                  energy_gap     :    0.20000000
  eps_taylor     :   0.10000E-15                  max_taylor     :             4
  ----------------------------------- OT ---------------------------------------

  Step     Update method      Time    Convergence         Total energy    Change
  ------------------------------------------------------------------------------
     1 OT DIIS     0.15E+00   22.5     0.00004443     -1527.5014788501 -4.60E-03
     2 OT DIIS     0.15E+00   10.9     0.00004199     -1527.5025926760 -1.11E-03
     3 OT DIIS     0.15E+00   10.9     0.00003570     -1527.5072635119 -4.67E-03
     4 OT DIIS     0.15E+00   10.9     0.00003218     -1527.5122123968 -4.95E-03
     5 OT DIIS     0.15E+00   11.0     0.00002892     -1527.5179842593 -5.77E-03
     6 OT DIIS     0.15E+00   11.1     0.00002639     -1527.5225304578 -4.55E-03
     7 OT DIIS     0.15E+00   11.5     0.00002206     -1527.5297884664 -7.26E-03
     8 OT DIIS     0.15E+00   11.1     0.00001882     -1527.5341602344 -4.37E-03
     9 OT DIIS     0.15E+00   11.1     0.00001651     -1527.5371967862 -3.04E-03
    10 OT DIIS     0.15E+00   11.1     0.00001509     -1527.5386262068 -1.43E-03
    11 OT DIIS     0.15E+00   11.1     0.00001389     -1527.5398894173 -1.26E-03
    12 OT DIIS     0.15E+00   11.1     0.00001283     -1527.5411255628 -1.24E-03
    13 OT DIIS     0.15E+00   11.1     0.00001229     -1527.5417723193 -6.47E-04
    14 OT DIIS     0.15E+00   11.1     0.00001143     -1527.5429367642 -1.16E-03
    15 OT DIIS     0.15E+00   11.1     0.00001088     -1527.5434140957 -4.77E-04
    16 OT DIIS     0.15E+00   11.1     0.00001003     -1527.5446642145 -1.25E-03
    17 OT DIIS     0.15E+00   11.1     0.00000963     -1527.5452912332 -6.27E-04
    18 OT DIIS     0.15E+00   11.1     0.00000897     -1527.5461213890 -8.30E-04
    19 OT DIIS     0.15E+00   11.1     0.00000856     -1527.5466556090 -5.34E-04
    20 OT DIIS     0.15E+00   11.1     0.00000772     -1527.5476238312 -9.68E-04
    21 OT DIIS     0.15E+00   11.9     0.00000749     -1527.5478743778 -2.51E-04
    22 OT DIIS     0.15E+00   17.4     0.00000712     -1527.5482365652 -3.62E-04
    23 OT DIIS     0.15E+00   17.4     0.00000693     -1527.5484626254 -2.26E-04
    24 OT DIIS     0.15E+00   11.8     0.00000648     -1527.5491017929 -6.39E-04
    25 OT DIIS     0.15E+00   11.3     0.00000610     -1527.5497621601 -6.60E-04
    26 OT DIIS     0.15E+00   11.3     0.00000588     -1527.5501493191 -3.87E-04
    27 OT DIIS     0.15E+00   11.2     0.00000573     -1527.5503760388 -2.27E-04
    28 OT DIIS     0.15E+00   11.4     0.00000545     -1527.5507664213 -3.90E-04
    29 OT DIIS     0.15E+00   11.3     0.00000524     -1527.5509786630 -2.12E-04
    30 OT DIIS     0.15E+00   11.2     0.00000503     -1527.5511794602 -2.01E-04
    31 OT DIIS     0.15E+00   11.2     0.00000478     -1527.5514143668 -2.35E-04
    32 OT DIIS     0.15E+00   11.3     0.00000461     -1527.5515518326 -1.37E-04
    33 OT DIIS     0.15E+00   11.2     0.00000435     -1527.5517941915 -2.42E-04
    34 OT DIIS     0.15E+00   11.1     0.00000415     -1527.5519925344 -1.98E-04
    35 OT DIIS     0.15E+00   11.1     0.00000406     -1527.5520993092 -1.07E-04
    36 OT DIIS     0.15E+00   11.1     0.00000398     -1527.5521829173 -8.36E-05
    37 OT DIIS     0.15E+00   11.1     0.00000391     -1527.5522462407 -6.33E-05
    38 OT DIIS     0.15E+00   11.1     0.00000385     -1527.5523026548 -5.64E-05
    39 OT DIIS     0.15E+00   11.1     0.00000380     -1527.5523547346 -5.21E-05
    40 OT DIIS     0.15E+00   11.1     0.00000371     -1527.5524395574 -8.48E-05
    41 OT DIIS     0.15E+00   11.0     0.00000356     -1527.5526121092 -1.73E-04
    42 OT DIIS     0.15E+00   11.1     0.00000331     -1527.5528937456 -2.82E-04
    43 OT DIIS     0.15E+00   11.1     0.00000320     -1527.5530313851 -1.38E-04
    44 OT DIIS     0.15E+00   11.0     0.00000306     -1527.5531830996 -1.52E-04
    45 OT DIIS     0.15E+00   11.0     0.00000297     -1527.5532915496 -1.08E-04
    46 OT DIIS     0.15E+00   11.1     0.00000288     -1527.5533861569 -9.46E-05
    47 OT DIIS     0.15E+00   11.1     0.00000280     -1527.5534666755 -8.05E-05
    48 OT DIIS     0.15E+00   11.1     0.00000271     -1527.5535515280 -8.49E-05
    49 OT DIIS     0.15E+00   11.1     0.00000261     -1527.5536370381 -8.55E-05
    50 OT DIIS     0.15E+00   11.1     0.00000246     -1527.5537530783 -1.16E-04

  Leaving inner SCF loop after reaching    50 steps.


  Electronic density on regular grids:      -1046.9999999784        0.0000000216
  Core density on regular grids:             1049.9999999271       -0.0000000729
  Total charge density on r-space grids:        2.9999999487
  Total charge density g-space grids:           2.9999999487

  Overlap energy of the core charge distribution:               0.00009108160821
  Self energy of the core charge distribution:              -3603.95462265793367
  Core Hamiltonian energy:                                   1131.23357595376933
  Hartree energy:                                            1410.19288285678931
  Exchange-correlation energy:                               -465.02568031253907

  Total energy:                                             -1527.55375307830559

  outer SCF iter =    5 RMS gradient =   0.25E-05 energy =      -1527.5537530783

  ----------------------------------- OT ---------------------------------------
  Minimizer      : DIIS                : direct inversion
                                         in the iterative subspace
                                         using   7 DIIS vectors
                                         safer DIIS on
  Preconditioner : FULL_KINETIC        : inversion of T + eS
  Precond_solver : DEFAULT
  stepsize       :    0.15000000                  energy_gap     :    0.20000000
  eps_taylor     :   0.10000E-15                  max_taylor     :             4
  ----------------------------------- OT ---------------------------------------

  Step     Update method      Time    Convergence         Total energy    Change
  ------------------------------------------------------------------------------
     1 OT DIIS     0.15E+00   22.4     0.00000308     -1527.5538224190 -6.93E-05
     2 OT DIIS     0.15E+00   10.9     0.00000299     -1527.5538278463 -5.43E-06
     3 OT DIIS     0.15E+00   10.9     0.00000271     -1527.5538580311 -3.02E-05
     4 OT DIIS     0.15E+00   10.9     0.00000263     -1527.5538796274 -2.16E-05
     5 OT DIIS     0.15E+00   11.1     0.00000257     -1527.5539117594 -3.21E-05
     6 OT DIIS     0.15E+00   11.0     0.00000252     -1527.5539426729 -3.09E-05
     7 OT DIIS     0.15E+00   10.9     0.00000246     -1527.5539951367 -5.25E-05
     8 OT DIIS     0.15E+00   10.9     0.00000234     -1527.5540910896 -9.60E-05
     9 OT DIIS     0.15E+00   11.0     0.00000227     -1527.5541649652 -7.39E-05
    10 OT DIIS     0.15E+00   11.0     0.00000219     -1527.5542444307 -7.95E-05
    11 OT DIIS     0.15E+00   10.9     0.00000209     -1527.5543388289 -9.44E-05
    12 OT DIIS     0.15E+00   11.0     0.00000200     -1527.5544205030 -8.17E-05
    13 OT DIIS     0.15E+00   11.0     0.00000190     -1527.5545045615 -8.41E-05
    14 OT DIIS     0.15E+00   11.0     0.00000180     -1527.5545911873 -8.66E-05
    15 OT DIIS     0.15E+00   11.0     0.00000174     -1527.5546439819 -5.28E-05
    16 OT DIIS     0.15E+00   11.0     0.00000168     -1527.5546916108 -4.76E-05
    17 OT DIIS     0.15E+00   11.0     0.00000162     -1527.5547398164 -4.82E-05
    18 OT DIIS     0.15E+00   11.0     0.00000158     -1527.5547783725 -3.86E-05
    19 OT DIIS     0.15E+00   11.0     0.00000154     -1527.5548184036 -4.00E-05
    20 OT DIIS     0.15E+00   10.9     0.00000150     -1527.5548587298 -4.03E-05
    21 OT DIIS     0.15E+00   11.0     0.00000147     -1527.5548918118 -3.31E-05
    22 OT DIIS     0.15E+00   10.9     0.00000143     -1527.5549265257 -3.47E-05
    23 OT DIIS     0.15E+00   11.0     0.00000139     -1527.5549582437 -3.17E-05
    24 OT DIIS     0.15E+00   11.0     0.00000136     -1527.5549855306 -2.73E-05
    25 OT DIIS     0.15E+00   11.0     0.00000132     -1527.5550177727 -3.22E-05
    26 OT DIIS     0.15E+00   11.0     0.00000129     -1527.5550439620 -2.62E-05
    27 OT DIIS     0.15E+00   11.0     0.00000126     -1527.5550669000 -2.29E-05
    28 OT DIIS     0.15E+00   11.0     0.00000124     -1527.5550912223 -2.43E-05
    29 OT DIIS     0.15E+00   11.1     0.00000122     -1527.5551094824 -1.83E-05
    30 OT DIIS     0.15E+00   11.1     0.00000120     -1527.5551273877 -1.79E-05
    31 OT DIIS     0.15E+00   11.0     0.00000118     -1527.5551473124 -1.99E-05
    32 OT DIIS     0.15E+00   11.1     0.00000116     -1527.5551660799 -1.88E-05
    33 OT DIIS     0.15E+00   11.1     0.00000115     -1527.5551878702 -2.18E-05
    34 OT DIIS     0.15E+00   11.1     0.00000113     -1527.5552076285 -1.98E-05
    35 OT DIIS     0.15E+00   11.1     0.00000111     -1527.5552273980 -1.98E-05
    36 OT DIIS     0.15E+00   11.1     0.00000110     -1527.5552461276 -1.87E-05
    37 OT DIIS     0.15E+00   11.1     0.00000108     -1527.5552657763 -1.96E-05
    38 OT DIIS     0.15E+00   11.2     0.00000106     -1527.5552868091 -2.10E-05
    39 OT DIIS     0.15E+00   11.1     0.00000105     -1527.5553064830 -1.97E-05
    40 OT DIIS     0.15E+00   11.0     0.00000102     -1527.5553328644 -2.64E-05
    41 OT DIIS     0.15E+00   11.0     0.00000100     -1527.5553560838 -2.32E-05
    42 OT DIIS     0.15E+00   11.0     0.00000098     -1527.5553762388 -2.02E-05
    43 OT DIIS     0.15E+00   11.1     0.00000096     -1527.5554043846 -2.81E-05
    44 OT DIIS     0.15E+00   11.0     0.00000094     -1527.5554193247 -1.49E-05
    45 OT DIIS     0.15E+00   11.0     0.00000092     -1527.5554448418 -2.55E-05
    46 OT DIIS     0.15E+00   11.0     0.00000090     -1527.5554654397 -2.06E-05
    47 OT DIIS     0.15E+00   11.0     0.00000088     -1527.5554817050 -1.63E-05
    48 OT DIIS     0.15E+00   11.0     0.00000085     -1527.5555072726 -2.56E-05
    49 OT DIIS     0.15E+00   11.1     0.00000083     -1527.5555194196 -1.21E-05
    50 OT DIIS     0.15E+00   11.0     0.00000080     -1527.5555369367 -1.75E-05

  Leaving inner SCF loop after reaching    50 steps.


  Electronic density on regular grids:      -1046.9999999782        0.0000000218
  Core density on regular grids:             1049.9999999271       -0.0000000729
  Total charge density on r-space grids:        2.9999999488
  Total charge density g-space grids:           2.9999999488

  Overlap energy of the core charge distribution:               0.00009108160821
  Self energy of the core charge distribution:              -3603.95462265793367
  Core Hamiltonian energy:                                   1131.23368173935592
  Hartree energy:                                            1410.19064997822829
  Exchange-correlation energy:                               -465.02533707795408

  Total energy:                                             -1527.55553693669549

  outer SCF iter =    6 RMS gradient =   0.80E-06 energy =      -1527.5555369367

  ----------------------------------- OT ---------------------------------------
  Minimizer      : DIIS                : direct inversion
                                         in the iterative subspace
                                         using   7 DIIS vectors
                                         safer DIIS on
  Preconditioner : FULL_KINETIC        : inversion of T + eS
  Precond_solver : DEFAULT
  stepsize       :    0.15000000                  energy_gap     :    0.20000000
  eps_taylor     :   0.10000E-15                  max_taylor     :             4
  ----------------------------------- OT ---------------------------------------

  Step     Update method      Time    Convergence         Total energy    Change
  ------------------------------------------------------------------------------
     1 OT DIIS     0.15E+00   23.7     0.00000080     -1527.5555536057 -1.67E-05
     2 OT DIIS     0.15E+00   10.9     0.00000079     -1527.5555539721 -3.66E-07
     3 OT DIIS     0.15E+00   10.9     0.00000078     -1527.5555558937 -1.92E-06
     4 OT DIIS     0.15E+00   10.9     0.00000077     -1527.5555580644 -2.17E-06
     5 OT DIIS     0.15E+00   10.9     0.00000076     -1527.5555604794 -2.41E-06
     6 OT DIIS     0.15E+00   11.0     0.00000075     -1527.5555685434 -8.06E-06
     7 OT DIIS     0.15E+00   11.0     0.00000073     -1527.5555784495 -9.91E-06
     8 OT DIIS     0.15E+00   11.0     0.00000071     -1527.5555927166 -1.43E-05
     9 OT DIIS     0.15E+00   10.9     0.00000070     -1527.5556002909 -7.57E-06
    10 OT DIIS     0.15E+00   11.0     0.00000069     -1527.5556097281 -9.44E-06
    11 OT DIIS     0.15E+00   11.0     0.00000068     -1527.5556189011 -9.17E-06
    12 OT DIIS     0.15E+00   10.9     0.00000067     -1527.5556246192 -5.72E-06
    13 OT DIIS     0.15E+00   11.0     0.00000067     -1527.5556278612 -3.24E-06
    14 OT DIIS     0.15E+00   11.0     0.00000066     -1527.5556323319 -4.47E-06
    15 OT DIIS     0.15E+00   10.9     0.00000065     -1527.5556408303 -8.50E-06
    16 OT DIIS     0.15E+00   10.9     0.00000065     -1527.5556509761 -1.01E-05
    17 OT DIIS     0.15E+00   10.9     0.00000064     -1527.5556643881 -1.34E-05
    18 OT DIIS     0.15E+00   11.0     0.00000063     -1527.5556739305 -9.54E-06
    19 OT DIIS     0.15E+00   10.9     0.00000063     -1527.5556823666 -8.44E-06
    20 OT DIIS     0.15E+00   11.0     0.00000062     -1527.5556918480 -9.48E-06
    21 OT DIIS     0.15E+00   10.9     0.00000062     -1527.5557004378 -8.59E-06
    22 OT DIIS     0.15E+00   10.9     0.00000062     -1527.5557065955 -6.16E-06
    23 OT DIIS     0.15E+00   10.9     0.00000061     -1527.5557169298 -1.03E-05
    24 OT DIIS     0.15E+00   10.9     0.00000061     -1527.5557258586 -8.93E-06
    25 OT DIIS     0.15E+00   10.9     0.00000060     -1527.5557388453 -1.30E-05
    26 OT DIIS     0.15E+00   10.9     0.00000060     -1527.5557483456 -9.50E-06
    27 OT DIIS     0.15E+00   10.9     0.00000059     -1527.5557593646 -1.10E-05
    28 OT DIIS     0.15E+00   10.9     0.00000059     -1527.5557668909 -7.53E-06
    29 OT DIIS     0.15E+00   10.9     0.00000059     -1527.5557758890 -9.00E-06
    30 OT DIIS     0.15E+00   10.9     0.00000058     -1527.5557847811 -8.89E-06
    31 OT DIIS     0.15E+00   11.0     0.00000058     -1527.5557921508 -7.37E-06
    32 OT DIIS     0.15E+00   10.9     0.00000057     -1527.5558045825 -1.24E-05
    33 OT DIIS     0.15E+00   11.0     0.00000057     -1527.5558123387 -7.76E-06
    34 OT DIIS     0.15E+00   11.1     0.00000057     -1527.5558209954 -8.66E-06
    35 OT DIIS     0.15E+00   11.0     0.00000056     -1527.5558286085 -7.61E-06
    36 OT DIIS     0.15E+00   11.0     0.00000056     -1527.5558323775 -3.77E-06
    37 OT DIIS     0.15E+00   11.0     0.00000056     -1527.5558400805 -7.70E-06
    38 OT DIIS     0.15E+00   11.0     0.00000056     -1527.5558417409 -1.66E-06
    39 OT DIIS     0.15E+00   11.0     0.00000056     -1527.5558496742 -7.93E-06
    40 OT DIIS     0.15E+00   11.2     0.00000055     -1527.5558573383 -7.66E-06
    41 OT DIIS     0.15E+00   11.2     0.00000055     -1527.5558617108 -4.37E-06
    42 OT DIIS     0.15E+00   11.2     0.00000055     -1527.5558655072 -3.80E-06
    43 OT DIIS     0.15E+00   11.2     0.00000055     -1527.5558707618 -5.25E-06
    44 OT DIIS     0.15E+00   11.2     0.00000055     -1527.5558765975 -5.84E-06
    45 OT DIIS     0.15E+00   11.2     0.00000055     -1527.5558884448 -1.18E-05
    46 OT DIIS     0.15E+00   11.2     0.00000055     -1527.5558944837 -6.04E-06
    47 OT DIIS     0.15E+00   11.2     0.00000055     -1527.5559072814 -1.28E-05
    48 OT DIIS     0.15E+00   11.0     0.00000054     -1527.5559141817 -6.90E-06
    49 OT DIIS     0.15E+00   11.1     0.00000054     -1527.5559195589 -5.38E-06
    50 OT DIIS     0.15E+00   11.3     0.00000054     -1527.5559275026 -7.94E-06

  Leaving inner SCF loop after reaching    50 steps.


  Electronic density on regular grids:      -1046.9999999782        0.0000000218
  Core density on regular grids:             1049.9999999271       -0.0000000729
  Total charge density on r-space grids:        2.9999999488
  Total charge density g-space grids:           2.9999999488

  Overlap energy of the core charge distribution:               0.00009108160821
  Self energy of the core charge distribution:              -3603.95462265793367
  Core Hamiltonian energy:                                   1131.23225879864640
  Hartree energy:                                            1410.19137871434668
  Exchange-correlation energy:                               -465.02503343927663

  Total energy:                                             -1527.55592750260894

  outer SCF iter =    7 RMS gradient =   0.54E-06 energy =      -1527.5559275026

  ----------------------------------- OT ---------------------------------------
  Minimizer      : DIIS                : direct inversion
                                         in the iterative subspace
                                         using   7 DIIS vectors
                                         safer DIIS on
  Preconditioner : FULL_KINETIC        : inversion of T + eS
  Precond_solver : DEFAULT
  stepsize       :    0.15000000                  energy_gap     :    0.20000000
  eps_taylor     :   0.10000E-15                  max_taylor     :             4
  ----------------------------------- OT ---------------------------------------

  Step     Update method      Time    Convergence         Total energy    Change
  ------------------------------------------------------------------------------
     1 OT DIIS     0.15E+00   22.8     0.00000054     -1527.5559398799 -1.24E-05
     2 OT DIIS     0.15E+00   11.1     0.00000054     -1527.5559400512 -1.71E-07
     3 OT DIIS     0.15E+00   11.0     0.00000054     -1527.5559409288 -8.78E-07
     4 OT DIIS     0.15E+00   10.9     0.00000054     -1527.5559421566 -1.23E-06
     5 OT DIIS     0.15E+00   14.8     0.00000054     -1527.5559431793 -1.02E-06
     6 OT DIIS     0.15E+00   11.0     0.00000054     -1527.5559446030 -1.42E-06
     7 OT DIIS     0.15E+00   11.1     0.00000054     -1527.5559469787 -2.38E-06
     8 OT DIIS     0.15E+00   11.0     0.00000053     -1527.5559504393 -3.46E-06
     9 OT DIIS     0.15E+00   11.1     0.00000053     -1527.5559541430 -3.70E-06
    10 OT DIIS     0.15E+00   11.1     0.00000053     -1527.5559619912 -7.85E-06
    11 OT DIIS     0.15E+00   11.1     0.00000053     -1527.5559687972 -6.81E-06
    12 OT DIIS     0.15E+00   11.2     0.00000053     -1527.5559753128 -6.52E-06
    13 OT DIIS     0.15E+00   11.1     0.00000053     -1527.5559801561 -4.84E-06
    14 OT DIIS     0.15E+00   11.1     0.00000053     -1527.5559867718 -6.62E-06
    15 OT DIIS     0.15E+00   11.0     0.00000053     -1527.5559927292 -5.96E-06
    16 OT DIIS     0.15E+00   11.0     0.00000053     -1527.5559982940 -5.56E-06
    17 OT DIIS     0.15E+00   11.0     0.00000052     -1527.5560044631 -6.17E-06
    18 OT DIIS     0.15E+00   11.0     0.00000052     -1527.5560107953 -6.33E-06
    19 OT DIIS     0.15E+00   11.0     0.00000052     -1527.5560199879 -9.19E-06
    20 OT DIIS     0.15E+00   10.9     0.00000052     -1527.5560330486 -1.31E-05
    21 OT DIIS     0.15E+00   10.9     0.00000052     -1527.5560377474 -4.70E-06
    22 OT DIIS     0.15E+00   11.0     0.00000052     -1527.5560518049 -1.41E-05
    23 OT DIIS     0.15E+00   11.1     0.00000052     -1527.5560615194 -9.71E-06
    24 OT DIIS     0.15E+00   11.0     0.00000051     -1527.5560698667 -8.35E-06
    25 OT DIIS     0.15E+00   11.0     0.00000051     -1527.5560803264 -1.05E-05
    26 OT DIIS     0.15E+00   11.1     0.00000051     -1527.5560861590 -5.83E-06
    27 OT DIIS     0.15E+00   11.1     0.00000051     -1527.5560954738 -9.31E-06
    28 OT DIIS     0.15E+00   11.1     0.00000051     -1527.5560962398 -7.66E-07
    29 OT DIIS     0.15E+00   11.1     0.00000051     -1527.5561033036 -7.06E-06
    30 OT DIIS     0.15E+00   11.0     0.00000051     -1527.5561085264 -5.22E-06
    31 OT DIIS     0.15E+00   10.9     0.00000050     -1527.5561166227 -8.10E-06
    32 OT DIIS     0.15E+00   11.0     0.00000050     -1527.5561211230 -4.50E-06
    33 OT DIIS     0.15E+00   11.1     0.00000050     -1527.5561308352 -9.71E-06
    34 OT DIIS     0.15E+00   11.1     0.00000051     -1527.5561319930 -1.16E-06
    35 OT DIIS     0.15E+00   11.0     0.00000050     -1527.5561429566 -1.10E-05

  *** SCF run converged in    35 steps ***


  Electronic density on regular grids:      -1046.9999999784        0.0000000216
  Core density on regular grids:             1049.9999999271       -0.0000000729
  Total charge density on r-space grids:        2.9999999486
  Total charge density g-space grids:           2.9999999486

  Overlap energy of the core charge distribution:               0.00009108160821
  Self energy of the core charge distribution:              -3603.95462265793367
  Core Hamiltonian energy:                                   1131.23042133198942
  Hartree energy:                                            1410.19259458512579
  Exchange-correlation energy:                               -465.02462729734032

  Total energy:                                             -1527.55614295655050

  outer SCF iter =    8 RMS gradient =   0.50E-06 energy =      -1527.5561429566
  outer SCF loop converged in   8 iterations or  385 steps


  Integrated absolute spin density  :                              11.4570068224
  Ideal and single determinant S**2 :                    3.750000       7.779831

 ENERGY| Total FORCE_EVAL ( QS ) energy (a.u.):            -1527.556149165288161


 -------------------------------------------------------------------------------
 -                                                                             -
 -                                DBCSR STATISTICS                             -
 -                                                                             -
 -------------------------------------------------------------------------------
 COUNTER                                    TOTAL       BLAS       SMM       ACC
 flops   42 x   10 x   10                   67200       0.0%    100.0%      0.0%
 flops    5 x   10 x   10                 2112000       0.0%    100.0%      0.0%
 flops   13 x   10 x   10                 3744000       0.0%    100.0%      0.0%
 flops   42 x   10 x   42                27871200       0.0%    100.0%      0.0%
 flops   42 x   42 x   45                61440120       0.0%    100.0%      0.0%
 flops   42 x   42 x   42               407335824       0.0%    100.0%      0.0%
 flops    5 x   10 x   42               477792000       0.0%    100.0%      0.0%
 flops   42 x   10 x    5               477792000       0.0%    100.0%      0.0%
 flops   42 x    5 x   42               491520960       0.0%    100.0%      0.0%
 flops    5 x   42 x   42               491520960       0.0%    100.0%      0.0%
 flops   42 x    5 x   45               526629600       0.0%    100.0%      0.0%
 flops    5 x   42 x   45               526629600       0.0%    100.0%      0.0%
 flops   45 x   45 x   45               547661250       0.0%    100.0%      0.0%
 flops   42 x   13 x    5               620343360       0.0%    100.0%      0.0%
 flops    5 x   32 x   32               692060160       0.0%    100.0%      0.0%
 flops   13 x   10 x   42              1173244800       0.0%    100.0%      0.0%
 flops   42 x   10 x   13              1173244800       0.0%    100.0%      0.0%
 flops   13 x   42 x   42              1189207656       0.0%    100.0%      0.0%
 flops   13 x   32 x   32              1226833920       0.0%    100.0%      0.0%
 flops   42 x   13 x   42              1260893088       0.0%    100.0%      0.0%
 flops   13 x   42 x   45              1274151060       0.0%    100.0%      0.0%
 flops   42 x   13 x   45              1312185420       0.0%    100.0%      0.0%
 flops   32 x   42 x   42              1333301760       0.0%    100.0%      0.0%
 flops   42 x   13 x   13              1523401152       0.0%    100.0%      0.0%
 flops   42 x   42 x   32              1770209280       0.0%    100.0%      0.0%
 flops   32 x   45 x   45              1947240000       0.0%    100.0%      0.0%
 flops   45 x   32 x   45              1947240000       0.0%    100.0%      0.0%
 flops   45 x   45 x   32              1947240000       0.0%    100.0%      0.0%
 flops   42 x   64 x   42              2666603520       0.0%    100.0%      0.0%
 flops   64 x   42 x   42              2666603520       0.0%    100.0%      0.0%
 flops   42 x   42 x   64              3540418560       0.0%    100.0%      0.0%
 flops   42 x    5 x   32              3744921600       0.0%    100.0%      0.0%
 flops    5 x   42 x   32              3744921600       0.0%    100.0%      0.0%
 flops    5 x   10 x    5              3854410000       0.0%    100.0%      0.0%
 flops   45 x   45 x   64              3894480000       0.0%    100.0%      0.0%
 flops   45 x   64 x   45              3894480000       0.0%    100.0%      0.0%
 flops   64 x   45 x   45              3894480000       0.0%    100.0%      0.0%
 flops    5 x    5 x   42              4072439700       0.0%    100.0%      0.0%
 flops   42 x   32 x   42              4185506304       0.0%    100.0%      0.0%
 flops    5 x    5 x   45              4363328250       0.0%    100.0%      0.0%
 flops    5 x   13 x    5              5004390300       0.0%    100.0%      0.0%
 flops   32 x   32 x   42              5079244800       0.0%    100.0%      0.0%
 flops   32 x   42 x   32              5079244800       0.0%    100.0%      0.0%
 flops   42 x   32 x   32              5101264896       0.0%    100.0%      0.0%
 flops   42 x   42 x  338              5480564544     100.0%      0.0%      0.0%
 flops   45 x   45 x  338              6291464400     100.0%      0.0%      0.0%
 flops  338 x   42 x   42              6829241328     100.0%      0.0%      0.0%
 flops   32 x   32 x   45              6923520000       0.0%    100.0%      0.0%
 flops   32 x   45 x   32              6923520000       0.0%    100.0%      0.0%
 flops   45 x   32 x   32              6923520000       0.0%    100.0%      0.0%
 flops   42 x    5 x   64              7489843200       0.0%    100.0%      0.0%
 flops    5 x   42 x   64              7489843200       0.0%    100.0%      0.0%
 flops  338 x   45 x   45              7839690300     100.0%      0.0%      0.0%
 flops   13 x   10 x    5              8668907000       0.0%    100.0%      0.0%
 flops    5 x   10 x   13              8668907000       0.0%    100.0%      0.0%
 flops   13 x    5 x   42              8906379300       0.0%    100.0%      0.0%
 flops   13 x   42 x   32              9060629760       0.0%    100.0%      0.0%
 flops   42 x   13 x   32              9331096320       0.0%    100.0%      0.0%
 flops   13 x    5 x   45              9542549250       0.0%    100.0%      0.0%
 flops    5 x   13 x   42              9549965880       0.0%    100.0%      0.0%
 flops    5 x   13 x   45              9567452700       0.0%    100.0%      0.0%
 flops   32 x   42 x   64             10158489600       0.0%    100.0%      0.0%
 flops   32 x   64 x   42             10158489600       0.0%    100.0%      0.0%
 flops   42 x   32 x   64             10158489600       0.0%    100.0%      0.0%
 flops   42 x   64 x   32             10158489600       0.0%    100.0%      0.0%
 flops   64 x   32 x   42             10158489600       0.0%    100.0%      0.0%
 flops   64 x   42 x   32             10158489600       0.0%    100.0%      0.0%
 flops   13 x   13 x    5             11255313810       0.0%    100.0%      0.0%
 flops    5 x   13 x   13             11258883090       0.0%    100.0%      0.0%
 flops   32 x   45 x   64             13847040000       0.0%    100.0%      0.0%
 flops   32 x   64 x   45             13847040000       0.0%    100.0%      0.0%
 flops   45 x   32 x   64             13847040000       0.0%    100.0%      0.0%
 flops   45 x   64 x   32             13847040000       0.0%    100.0%      0.0%
 flops   64 x   32 x   45             13847040000       0.0%    100.0%      0.0%
 flops   64 x   45 x   32             13847040000       0.0%    100.0%      0.0%
 flops   42 x   42 x  336             14528360448     100.0%      0.0%      0.0%
 flops   45 x   45 x  336             16677964800     100.0%      0.0%      0.0%
 flops  336 x   42 x   42             18103550976     100.0%      0.0%      0.0%
 flops   13 x   42 x   64             18121259520       0.0%    100.0%      0.0%
 flops   42 x   13 x   64             18662192640       0.0%    100.0%      0.0%
 flops   64 x   64 x   42             20316979200       0.0%    100.0%      0.0%
 flops   42 x   64 x   64             20316979200       0.0%    100.0%      0.0%
 flops   64 x   42 x   64             20316979200       0.0%    100.0%      0.0%
 flops  336 x   45 x   45             20782137600     100.0%      0.0%      0.0%
 flops   32 x   42 x  338             20878341120       0.0%    100.0%      0.0%
 flops   42 x   32 x  338             20878341120       0.0%    100.0%      0.0%
 flops   32 x   45 x  338             22369651200       0.0%    100.0%      0.0%
 flops   45 x   32 x  338             22369651200       0.0%    100.0%      0.0%
 flops   13 x   10 x   13             23353569200       0.0%    100.0%      0.0%
 flops  338 x   32 x   42             26016157440       0.0%    100.0%      0.0%
 flops  338 x   42 x   32             26016157440       0.0%    100.0%      0.0%
 flops   13 x   13 x   42             26042349060       0.0%    100.0%      0.0%
 flops   13 x   13 x   45             26270423010       0.0%    100.0%      0.0%
 flops   64 x   64 x   45             27694080000       0.0%    100.0%      0.0%
 flops   45 x   64 x   64             27694080000       0.0%    100.0%      0.0%
 flops   64 x   45 x   64             27694080000       0.0%    100.0%      0.0%
 flops  338 x   32 x   45             27874454400       0.0%    100.0%      0.0%
 flops  338 x   45 x   32             27874454400       0.0%    100.0%      0.0%
 flops   13 x   13 x   13             30327537396       0.0%    100.0%      0.0%
 flops    5 x    5 x   32             31028112000       0.0%    100.0%      0.0%
 flops  338 x   42 x  338             33942806352     100.0%      0.0%      0.0%
 flops  338 x   45 x  338             36367292520     100.0%      0.0%      0.0%
 flops   42 x   64 x  338             41756682240     100.0%      0.0%      0.0%
 flops   64 x   42 x  338             41756682240     100.0%      0.0%      0.0%
 flops   32 x   32 x   32             43966464000       0.0%    100.0%      0.0%
 flops   45 x   64 x  338             44739302400     100.0%      0.0%      0.0%
 flops   64 x   45 x  338             44739302400     100.0%      0.0%      0.0%
 flops   42 x   32 x    5             48894935040       0.0%    100.0%      0.0%
 flops    5 x   32 x   42             48894935040       0.0%    100.0%      0.0%
 flops  338 x   42 x   64             52032314880     100.0%      0.0%      0.0%
 flops  338 x   64 x   42             52032314880     100.0%      0.0%      0.0%
 flops   32 x   42 x  336             55346135040       0.0%    100.0%      0.0%
 flops   42 x   32 x  336             55346135040       0.0%    100.0%      0.0%
 flops  338 x   45 x   64             55748908800     100.0%      0.0%      0.0%
 flops  338 x   64 x   45             55748908800     100.0%      0.0%      0.0%
 flops   32 x   45 x  336             59299430400       0.0%    100.0%      0.0%
 flops   45 x   32 x  336             59299430400       0.0%    100.0%      0.0%
 flops    5 x    5 x   64             62056224000       0.0%    100.0%      0.0%
 flops   13 x    5 x   32             67858128000       0.0%    100.0%      0.0%
 flops    5 x   13 x   32             68035219200       0.0%    100.0%      0.0%
 flops  336 x   32 x   42             68965908480       0.0%    100.0%      0.0%
 flops  336 x   42 x   32             68965908480       0.0%    100.0%      0.0%
 flops  336 x   32 x   45             73892044800       0.0%    100.0%      0.0%
 flops  336 x   45 x   32             73892044800       0.0%    100.0%      0.0%
 flops   32 x   32 x   64             87932928000       0.0%    100.0%      0.0%
 flops   32 x   64 x   32             87932928000       0.0%    100.0%      0.0%
 flops   64 x   32 x   32             87932928000       0.0%    100.0%      0.0%
 flops  336 x   42 x  338             89978563584     100.0%      0.0%      0.0%
 flops  338 x   42 x  336             89978563584     100.0%      0.0%      0.0%
 flops  336 x   45 x  338             96405603840     100.0%      0.0%      0.0%
 flops  338 x   45 x  336             96405603840     100.0%      0.0%      0.0%
 flops   42 x   64 x  336            110692270080     100.0%      0.0%      0.0%
 flops   64 x   42 x  336            110692270080     100.0%      0.0%      0.0%
 flops   45 x   64 x  336            118598860800     100.0%      0.0%      0.0%
 flops   64 x   45 x  336            118598860800     100.0%      0.0%      0.0%
 flops   42 x   32 x   13            120064229376       0.0%    100.0%      0.0%
 flops   13 x   32 x   42            120064229376       0.0%    100.0%      0.0%
 flops   13 x    5 x   64            135716256000       0.0%    100.0%      0.0%
 flops    5 x   13 x   64            136070438400       0.0%    100.0%      0.0%
 flops  336 x   64 x   42            137931816960     100.0%      0.0%      0.0%
 flops  336 x   42 x   64            137931816960     100.0%      0.0%      0.0%
 flops  336 x   64 x   45            147784089600     100.0%      0.0%      0.0%
 flops  336 x   45 x   64            147784089600     100.0%      0.0%      0.0%
 flops   32 x   32 x  338            159073075200       0.0%    100.0%      0.0%
 flops   64 x   64 x   32            175865856000       0.0%    100.0%      0.0%
 flops   32 x   64 x   64            175865856000       0.0%    100.0%      0.0%
 flops   64 x   32 x   64            175865856000       0.0%    100.0%      0.0%
 flops   13 x   13 x   32            186811896960       0.0%    100.0%      0.0%
 flops  338 x   32 x   32            198218342400       0.0%    100.0%      0.0%
 flops  336 x   42 x  336            238523056128     100.0%      0.0%      0.0%
 flops  336 x   45 x  336            255560417280     100.0%      0.0%      0.0%
 flops  338 x   32 x  338            258611857920     100.0%      0.0%      0.0%
 flops   32 x   64 x  338            318146150400     100.0%      0.0%      0.0%
 flops   64 x   32 x  338            318146150400     100.0%      0.0%      0.0%
 flops   64 x   64 x   64            351731712000       0.0%    100.0%      0.0%
 flops   13 x   13 x   64            373623793920       0.0%    100.0%      0.0%
 flops    5 x   32 x    5            394441779200       0.0%    100.0%      0.0%
 flops  338 x   32 x   64            396436684800     100.0%      0.0%      0.0%
 flops  338 x   64 x   32            396436684800     100.0%      0.0%      0.0%
 flops   32 x   32 x  336            421684838400       0.0%    100.0%      0.0%
 flops  338 x   64 x  338            517223715840     100.0%      0.0%      0.0%
 flops  336 x   32 x   32            525454540800       0.0%    100.0%      0.0%
 flops   64 x   64 x  338            636292300800     100.0%      0.0%      0.0%
 flops  336 x   32 x  338            685550960640     100.0%      0.0%      0.0%
 flops  338 x   32 x  336            685550960640     100.0%      0.0%      0.0%
 flops  338 x   64 x   64            792873369600     100.0%      0.0%      0.0%
 flops   32 x   64 x  336            843369676800     100.0%      0.0%      0.0%
 flops   64 x   32 x  336            843369676800     100.0%      0.0%      0.0%
 flops   13 x   32 x    5            887134243840       0.0%    100.0%      0.0%
 flops    5 x   32 x   13            887134243840       0.0%    100.0%      0.0%
 flops  336 x   64 x   32           1050909081600     100.0%      0.0%      0.0%
 flops  336 x   32 x   64           1050909081600     100.0%      0.0%      0.0%
 flops  336 x   64 x  338           1371101921280     100.0%      0.0%      0.0%
 flops  338 x   64 x  336           1371101921280     100.0%      0.0%      0.0%
 flops   64 x   64 x  336           1686739353600     100.0%      0.0%      0.0%
 flops  336 x   32 x  336           1817318522880     100.0%      0.0%      0.0%
 flops  336 x   64 x   64           2101818163200     100.0%      0.0%      0.0%
 flops   13 x   32 x   13           2389891938304       0.0%    100.0%      0.0%
 flops  336 x   64 x  336           3634637045760     100.0%      0.0%      0.0%
 flops total                        33.038960E+12      70.3%     29.7%      0.0%
 flops max/rank                    415.706259E+09      73.4%     26.6%      0.0%
 matmuls inhomo. stacks                         0       0.0%      0.0%      0.0%
 matmuls total                         1137316690       0.7%     99.3%      0.0%
 number of processed stacks              31847343      23.7%     76.3%      0.0%
 average stack size                                     1.0      46.5       0.0
 marketing flops                    60.615234E+12
 -------------------------------------------------------------------------------
 # multiplications                          15420
 max memory usage/rank             772.972544E+06
 # max total images/rank                        1
 # MPI messages exchanged                37316400
 # MPI messages filtered                        0
 MPI messages size (elements):
  total size                       464.271180E+09
  min size                           0.000000E+00
  max size                         114.244000E+03
  average size                      12.441479E+03
 MPI breakdown and total messages size (bytes):
             size <=      128               56320                        0
       128 < size <=     8192             3638800              29809049600
      8192 < size <=    32768            13970880             289416953840
     32768 < size <=   131072             9157500             836225825760
    131072 < size <=  4194304            10492900            2559471970720
   4194304 < size <= 16777216                   0                        0
  16777216 < size                               0                        0
 -------------------------------------------------------------------------------

 MEMORY| Estimated peak process memory [MiB]                                 738

 -------------------------------------------------------------------------------
 -                                                                             -
 -                         MESSAGE PASSING PERFORMANCE                         -
 -                                                                             -
 -------------------------------------------------------------------------------

 ROUTINE             CALLS  TOT TIME [s]  AVE VOLUME [Bytes]  PERFORMANCE [MB/s]
 MP_Group                4         0.000
 MP_Bcast            12047         0.105             175733.            20089.78
 MP_Allreduce        67967        34.958                169.                0.33
 MP_Sync               380         0.011
 MP_Alltoall         60819       492.900            8778067.             1083.13
 MP_ISendRecv       185280         0.642             460800.           133026.12
 MP_Wait           1844580       645.316
 MP_comm_split         377         0.198
 MP_ISend           724766         4.201             168465.            29067.01
 MP_IRecv           724766         0.403             167377.           300818.70
 MP_Recv               640         0.175             947712.             3458.67
 MP_Memory          627404         0.161
 -------------------------------------------------------------------------------


 -------------------------------------------------------------------------------
 -                                                                             -
 -                           R E F E R E N C E S                               -
 -                                                                             -
 -------------------------------------------------------------------------------
 
 CP2K version 4.1, the CP2K developers group (2016).
 CP2K is freely available from https://www.cp2k.org/ .

 Schuett, Ole; Messmer, Peter; Hutter, Juerg; VandeVondele, Joost. 
 Electronic Structure Calculations on Graphics Processing Units, John Wiley & Sons, Ltd, 173-190 (2016). 
 GPU-Accelerated Sparse Matrix-Matrix Multiplication for Linear Scaling Density Functional Theory.
 http://dx.doi.org/10.1002/9781118670712.ch8


 Borstnik, U; VandeVondele, J; Weber, V; Hutter, J. 
 PARALLEL COMPUTING, 40 (5-6), 47-58 (2014). 
 Sparse matrix multiplication: The distributed block-compressed sparse
 row library.
 http://dx.doi.org/10.1016/j.parco.2014.03.012


 Hutter, J; Iannuzzi, M; Schiffmann, F; VandeVondele, J. 
 WILEY INTERDISCIPLINARY REVIEWS-COMPUTATIONAL MOLECULAR SCIENCE, 4 (1), 15-25 (2014). 
 CP2K: atomistic simulations of condensed matter systems.
 http://dx.doi.org/10.1002/wcms.1159


 VandeVondele, J; Hutter, J. 
 JOURNAL OF CHEMICAL PHYSICS, 127 (11), 114105 (2007). 
 Gaussian basis sets for accurate calculations on molecular systems in
 gas and condensed phases.
 http://dx.doi.org/10.1063/1.2770708


 Krack, M. 
 THEORETICAL CHEMISTRY ACCOUNTS, 114 (1-3), 145-152 (2005). 
 Pseudopotentials for H to Kr optimized for gradient-corrected
 exchange-correlation functionals.
 http://dx.doi.org/10.1007/s00214-005-0655-y


 VandeVondele, J; Krack, M; Mohamed, F; Parrinello, M; Chassaing, T;
 Hutter, J. COMPUTER PHYSICS COMMUNICATIONS, 167 (2), 103-128 (2005). 
 QUICKSTEP: Fast and accurate density functional calculations using a
 mixed Gaussian and plane waves approach.
 http://dx.doi.org/10.1016/j.cpc.2004.12.014


 Frigo, M; Johnson, SG. 
 PROCEEDINGS OF THE IEEE, 93 (2), 216-231 (2005). 
 The design and implementation of FFTW3.
 http://dx.doi.org/10.1109/JPROC.2004.840301


 VandeVondele, J; Hutter, J. 
 JOURNAL OF CHEMICAL PHYSICS, 118 (10), 4365-4369 (2003). 
 An efficient orbital transformation method for electronic structure
 calculations.
 http://dx.doi.org/10.1063/1.1543154


 Hartwigsen, C; Goedecker, S; Hutter, J. 
 PHYSICAL REVIEW B, 58 (7), 3641-3662 (1998). 
 Relativistic separable dual-space Gaussian pseudopotentials from H to Rn.
 http://dx.doi.org/10.1103/PhysRevB.58.3641


 Lippert, G; Hutter, J; Parrinello, M. 
 MOLECULAR PHYSICS, 92 (3), 477-487 (1997). 
 A hybrid Gaussian and plane wave density functional scheme.
 http://dx.doi.org/10.1080/002689797170220


 Perdew, JP; Burke, K; Ernzerhof, M. 
 PHYSICAL REVIEW LETTERS, 77 (18), 3865-3868 (1996). 
 Generalized gradient approximation made simple.
 http://dx.doi.org/10.1103/PhysRevLett.77.3865


 Goedecker, S; Teter, M; Hutter, J. 
 PHYSICAL REVIEW B, 54 (3), 1703-1710 (1996). 
 Separable dual-space Gaussian pseudopotentials.
 http://dx.doi.org/10.1103/PhysRevB.54.1703


 -------------------------------------------------------------------------------
 -                                                                             -
 -                                T I M I N G                                  -
 -                                                                             -
 -------------------------------------------------------------------------------
 SUBROUTINE                       CALLS  ASD         SELF TIME        TOTAL TIME
                                MAXIMUM       AVERAGE  MAXIMUM  AVERAGE  MAXIMUM
 CP2K                                 1  1.0    0.026    0.062 4308.942 4308.949
 qs_forces                            1  2.0    0.001    0.001 4307.705 4307.706
 qs_energies                          1  3.0    0.000    0.000 4296.186 4296.197
 scf_env_do_scf                       1  4.0    0.001    0.001 4291.258 4291.259
 scf_env_do_scf_inner_loop          385  5.0    0.021    0.044 4224.885 4224.982
 rebuild_ks_matrix                  386  7.0    0.002    0.003 2992.255 2992.637
 qs_ks_build_kohn_sham_matrix       386  8.0    0.096    0.134 2992.252 2992.636
 qs_ks_update_qs_env                393  6.0    0.009    0.014 2983.526 2983.907
 pw_transfer                      11967 10.7    1.688    2.018 2456.891 2594.783
 fft_wrap_pw1pw2                  11195 11.8    0.218    0.254 2440.076 2583.640
 fft_wrap_pw1pw2_250               8107 12.9  177.999  222.896 2356.313 2482.960
 fft3d_ps                         11195 13.8 1074.605 1241.607 1920.171 2163.018
 qs_vxc_create                      386  9.0    0.017    0.023 2003.746 2021.411
 xc_vxc_pw_create                   386 10.0   26.929   48.288 2003.729 2021.402
 qs_rho_update_rho                  386  6.0    0.006    0.009 1064.994 1065.324
 calculate_rho_elec                 772  7.0   38.800   47.745 1064.988 1065.317
 xc_rho_set_and_dset_create         386 11.0   20.663   26.688  947.951 1019.915
 mp_alltoall_z22v                 11195 15.8  626.484 1001.960  626.484 1001.960
 density_rs2pw                      772  8.0    0.041    0.055  937.897  961.296
 rs_pw_transfer                    4634 10.5    0.133    0.167  939.169  955.839
 sum_up_and_integrate               386  9.0    7.572    9.638  786.606  786.724
 integrate_v_rspace                 772 10.0   26.621   35.334  779.031  781.894
 potential_pw2rs                    772 11.0    0.209    0.265  740.389  746.230
 x_to_yz                           5790 15.3  144.354  162.160  438.330  601.405
 yz_to_x                           5405 14.3   74.316   91.427  406.824  594.139
 mp_waitall_1                   1798230 14.2  360.442  429.347  360.442  429.347
 mp_waitany                       46350 12.5  305.255  428.997  305.255  428.997
 rs_pw_transfer_PW2RS_250           773 13.0  122.729  145.776  253.548  280.226
 rs_pw_transfer_RS2PW_250           773 10.0  118.540  140.263  244.007  260.179
 qs_scf_new_mos                     385  6.0    0.003    0.009  239.682  240.159
 qs_scf_loop_do_ot                  385  7.0    0.002    0.004  239.679  240.157
 ot_scf_mini                        385  8.0    0.021    0.031  230.537  231.245
 dbcsr_multiply_generic           15420 11.1    0.340    0.358  207.931  215.088
 pw_scatter_p                      5790 14.3  183.062  203.401  183.062  203.401
 pw_derive                         4632 11.5  146.568  176.751  146.568  176.751
 multiply_cannon                  15420 12.1    0.953    1.048  155.219  171.709
 pw_gather_p                       5405 13.3  152.908  169.604  152.908  169.604
 rs_pw_transfer_PW2RS_30            772 13.0   19.647   32.130  151.187  161.812
 xc_functional_eval                 386 12.0    0.009    0.014   86.917  157.702
 pbe_lsd_eval                       386 13.0   86.908  157.696   86.908  157.696
 ot_mini                            385  9.0    0.004    0.006  151.697  152.250
 rs_pw_transfer_RS2PW_30            772 10.0   18.519   28.472  137.979  144.360
 rs_pw_transfer_PW2RS_90            772 13.0   24.968   34.235   86.393  122.446
 multiply_cannon_metrocomm3      169620 13.1    0.155    0.176   49.794  105.914
 multiply_cannon_multrec         169620 13.1   67.470  105.170   67.506  105.207
 fft_wrap_pw1pw2_90                1544 12.5    4.797    6.561   70.621  104.311
 rs_grid_zero                      3862 10.4   88.531   96.573   88.531   96.573
 mp_sum_d                         19357 11.7   48.855   96.369   48.855   96.369
 pw_copy                           6563 11.7   75.576   94.651   75.576   94.651
 pw_axpy                           7721 10.2   79.900   92.592   79.900   92.592
 qs_ot_get_derivative               770 10.0    0.007    0.009   88.407   89.785
 -------------------------------------------------------------------------------

 The number of warnings for this run is : 1
 
 -------------------------------------------------------------------------------
  **** **** ******  **  PROGRAM ENDED AT                 2023-02-20 23:21:00.288
 ***** ** ***  *** **   PROGRAM RAN ON            node138.pri.kelvin2.alces.netw
 **    ****   ******    PROGRAM RAN BY                                  40265864
 ***** **    ** ** **   PROGRAM PROCESS ID                                 16299
  **** **  *******  **  PROGRAM STOPPED IN /mnt/scratch2/users/40265864/MSc_ML_M
                                           M/ln_replacements/xyz/Gd_L6_O_O_O_O/p
                                           relim_energy/run-4
