     233
 i =        1, E =     -1111.2036101680
  C         8.3028116456        1.0702502618       -8.7932521148
  C         6.7986172006        0.5943956074       -8.7098361325
  O         6.1356790835        1.1439224732       -9.9396801099
  C         4.7828516977        0.7294565302       -9.8418429282
  C         3.8409956564        1.5315236442       -9.0644987334
  C         2.4803993496        1.1028207467       -9.2260755759
  C         2.1162076477       -0.0599439973       -9.9671202258
  C         2.9820761401       -0.9180098799      -10.7214913483
  C         4.3682886460       -0.4934913104      -10.5708447047
  O         5.3789540362       -1.3459043201      -11.0843715871
  C         5.4781066484       -0.9822708122      -12.5357229772
  C         6.5712217101       -1.9323018462      -13.1317238712
  C         0.6982446782       -0.2243532542       -9.7330937941
  N         0.0850595692       -1.2817399135      -10.3307860516
  C        -1.2315655783       -1.4302550250       -9.9673395211
  N        -1.9683667725       -0.7844442907       -8.9363262474
 Dy        -1.9254138201        1.3369573262       -7.9859567396
  N         0.2047251189        0.7046229347       -8.7953220471
  C         1.2408513492        1.6704678543       -8.6775069217
  N         1.4006594154        2.5327357633       -7.5953289440
  C         0.7854867263        2.1630000000       -6.4040919377
  C         1.7178542862        1.8538100998       -5.2900935327
  C         3.0919913389        2.2381136075       -5.1088742046
  C         3.6414849648        1.7951316733       -3.8256394558
  O         4.9112583731        2.2532257483       -3.3856092666
  C         5.9065543872        1.4610186299       -4.1865933373
  C         7.3047823737        1.9982223906       -3.7462779002
  C         2.9026576823        0.9166498090       -2.8848571567
  C         1.5030276529        0.5435388438       -3.0885112452
  C         1.0117451130        1.0399775993       -4.3451525119
  C        -0.2874696775        0.7919304653       -4.9648892714
  N        -1.1560807460       -0.0393436051       -4.3103337473
  C        -2.2159029852       -0.4505320799       -5.0819520347
  N        -2.4453991673       -0.3135568058       -6.4626329220
  C        -3.7021512378       -0.9715168663       -6.6742037598
  N        -4.0661805266       -1.6276786447       -7.8213760873
  C        -3.2093770057       -1.5071097641       -8.8922670513
  C        -3.1586053124       -2.6631311276       -9.7881382757
  C        -1.8991835947       -2.6277350225      -10.4602352299
  C        -1.3708133669       -3.6496673076      -11.3151191919
  C        -2.3189940655       -4.7510175815      -11.4621310447
  O        -1.8867210649       -5.8082571401      -12.3039672500
  C        -1.3026281675       -6.8205700681      -11.3515869035
  C        -0.9357339497       -8.0539841686      -12.2301635989
  C        -3.6342893383       -4.7997103997      -10.7673979076
  C        -4.1142934049       -3.7237043411       -9.9105761456
  O        -4.4496335645       -5.9546049112      -10.8705104344
  C        -5.2477028891       -5.7478786739      -12.1275441816
  C        -6.1905457041       -6.9884239271      -12.2261741147
  C        -4.1126196235       -1.6444806752       -5.4493324754
  C        -3.1040628740       -1.4166494939       -4.4712474737
  C        -2.9383658351       -2.1245987894       -3.2352025638
  C        -4.0081696080       -3.1025527087       -3.0547283034
  C        -5.1241656712       -3.2789803599       -4.0235361590
  C        -5.2136572459       -2.5374816775       -5.2723541986
  O        -6.0819420847       -4.3090635254       -3.8680407443
  C        -7.0692161070       -3.7739853958       -2.8729039288
  C        -8.1109580775       -4.9247167875       -2.6749472037
  O        -3.9107256080       -3.9188250290       -1.9001176335
  C        -3.2615834974       -5.1783503493       -2.4209450850
  C        -3.1262368066       -6.1576278810       -1.2112077163
  N        -0.3576944293        1.3020371476       -6.2892158199
  O         3.6526030682        0.3105286149       -1.8377275123
  C         3.2477564396        1.0651255858       -0.6021214284
  C         4.0583038654        0.4155889034        0.5682353471
  N        -3.9224130238        1.9190377457       -7.1820231249
  C        -5.1746039931        1.3804308257       -7.5550764445
  N        -5.6961207440        1.1091312714       -8.8083920520
  C        -4.7616022668        1.1692440476       -9.8107443849
  N        -3.3507714672        1.2957051297       -9.7318115178
  C        -2.9065639073        1.1351227023      -11.0751062845
  N        -1.6479622739        1.3739214910      -11.6067285847
  C        -0.8569300836        2.2605908395      -10.8733130563
  N        -1.2517122732        2.8178807860       -9.6043352455
  C        -0.5864817886        4.0481466240       -9.5411925171
  N        -0.4519388369        4.9241550660       -8.5085911855
  C        -0.9762376444        4.4742857939       -7.3254610416
  N        -1.8583066144        3.3888376035       -7.0661540677
  C        -2.1893622757        3.5457826234       -5.6763695956
  N        -3.3185292995        3.0864586182       -5.0339128105
  C        -4.0806459177        2.2409019864       -5.7991989456
  C        -5.4783546940        2.0968438976       -5.4086465305
  C        -6.1883836613        1.6190789735       -6.5460997447
  C        -7.6024149496        1.4138640768       -6.6831878608
  C        -8.2938295134        1.8387124527       -5.4759515267
  C        -7.6329989462        2.3338339647       -4.2747376703
  C        -6.1764920574        2.4227969371       -4.1869339584
  O        -5.4843995804        2.9061188095       -3.0444261762
  C        -5.3488433424        1.8642357616       -1.9662514088
  C        -4.0821151560        0.9760749003       -2.3161697413
  C        -2.7687456911        1.7554649589       -1.9600703623
  C        -6.6115548886        0.9326479497       -1.7161706830
  C        -7.7128745126        1.7109148958       -0.9116992174
  C        -1.5864464387        4.7612078077       -5.1145652402
  C        -0.8507094327        5.3470516479       -6.1814052970
  C        -0.1396274618        6.5970224343       -6.1333799140
  C        -0.1457657523        7.1708055039       -4.7831275834
  C        -0.8842006314        6.5332820656       -3.6913051339
  C        -1.6918351029        5.3165963117       -3.7978673872
  O         0.2345779450        7.1081859207       -7.4096610172
  C         1.5042149673        7.8914849740       -7.1819274494
  C         2.7110807509        6.9126982407       -7.4668177367
  C         3.0371319717        5.9669261642       -6.2566054035
  C         1.4294536867        8.9478863300       -8.3380279594
  C         0.1695162518        9.8682838677       -8.2037449296
  C        -0.0532692172        4.4600463954      -10.8207409436
  C        -0.2228839473        3.3222346578      -11.6657748966
  C         0.2039561157        3.3606241065      -13.0438684448
  C         0.8062365017        4.6272333916      -13.4483733957
  C         0.9468481578        5.7540540906      -12.5312581413
  C         0.5571749135        5.7260855858      -11.1277193344
  O         0.0514178940        2.2427776019      -13.9030053831
  C         1.2077638047        1.3249694407      -13.5644441390
  C         0.8469063387        0.0905818268      -14.4613626869
  C        -0.4677254250       -0.6146846253      -13.9872929909
  C         2.6014134784        1.9265420523      -14.0440777072
  C         3.4323072106        2.5235370185      -12.8508861561
  C        -4.0383202606        1.3313850308      -12.0064580858
  C        -5.2101338721        1.3129404722      -11.1910623409
  C        -6.5624101020        1.4282279787      -11.6909413154
  C        -6.6243313428        1.5486777986      -13.1583722395
  C        -5.4074430514        1.5698962388      -13.9703984350
  C        -4.0460843900        1.4699702100      -13.4381178314
  O        -7.5493227069        1.5012219375      -10.6741329580
  C        -8.8394723249        1.0377297598      -11.3047264257
  C        -9.2273261234       -0.2042870431      -10.4210310945
  C        -8.2228221799       -1.3964048585      -10.6082985137
  C        -9.8570481317        2.1981432276      -11.0322695181
  C        -9.4204049935        3.5062707783      -11.7829967646
  H         8.6998124130        1.2168018534       -7.6887647164
  H         8.9299134923        0.2618680059       -9.3843179494
  H         8.2826193585        2.1055012137       -9.3701933464
  H         6.7489122990       -0.6007188094       -8.7455543066
  H         6.2803318928        0.9940846936       -7.7084927978
  H         4.0973313613        2.5115438042       -8.4647879459
  H         2.5756274241       -1.8666058220      -11.2965164256
  H         4.4456623203       -1.1683076505      -13.1047050052
  H         5.8270813773        0.1533474670      -12.6482033586
  H         7.1227983366       -2.4142122467      -12.2005465318
  H         6.0450423373       -2.7698339268      -13.7733169777
  H         7.3240610092       -1.2937516691      -13.7781573784
  H         3.6288818609        2.9515301996       -5.8755492646
  H         5.8066737429        0.3115269342       -3.8741345102
  H         5.7690808976        1.5986641727       -5.3646765483
  H         7.3142367496        1.9975696968       -2.5631496867
  H         8.1341811125        1.2742421354       -4.1783562318
  H         7.4072618576        3.0953406792       -4.1711304519
  H         0.8323467158       -0.1350216264       -2.3905348281
  H        -0.3154668068       -3.5450711444      -11.8332433422
  H        -0.3028704041       -6.3559131088      -10.8874426268
  H        -2.0714760498       -7.1241964745      -10.4910263595
  H        -0.6938006728       -8.9558445692      -11.5033605727
  H        -1.8929155978       -8.2819271241      -12.8867251305
  H        -0.0074989683       -7.7638366035      -12.8996578685
  H        -5.1461774172       -3.6887622102       -9.3419254690
  H        -5.8937633393       -4.7452824456      -12.0706478528
  H        -4.5048843522       -5.7271129282      -13.0628290156
  H        -6.4411942193       -7.3042158736      -11.1126288610
  H        -7.1715506618       -6.6637359323      -12.8000390165
  H        -5.6147671454       -7.8458640872      -12.7951297286
  H        -2.0408944744       -1.9148766089       -2.4983472168
  H        -6.0717981105       -2.6176791203       -6.0742620001
  H        -6.5349815999       -3.5161937875       -1.8381344832
  H        -7.6255253782       -2.8117473937       -3.3118035121
  H        -8.2525917682       -5.1111747905       -1.5191426393
  H        -9.1203393751       -4.6264023605       -3.2056795942
  H        -7.6316885114       -5.8748867646       -3.1961972761
  H        -3.9222368223       -5.6756432240       -3.2797375176
  H        -2.1684689013       -4.9133807264       -2.8207119140
  H        -3.1676345416       -7.2612994122       -1.6359029365
  H        -2.1046373796       -5.9470640163       -0.6615358253
  H        -4.0530528476       -5.9513655167       -0.5059366856
  H         3.5787695714        2.2084392317       -0.7211543640
  H         2.0770963278        0.9878586560       -0.3761605556
  H         3.9585494239       -0.7540517195        0.4072547812
  H         5.1852228823        0.7506638274        0.4378596332
  H         3.5961353819        0.7710924440        1.6024846104
  H        -8.0562781723        0.9482332110       -7.6684935685
  H        -9.4622909986        1.7399771727       -5.4832380331
  H        -8.2375888521        2.7360517217       -3.3526694351
  H        -5.1847124389        2.5362915260       -1.0197730906
  H        -4.1382527834        0.0322980599       -1.6092240618
  H        -4.0463909014        0.6808573591       -3.4576574467
  H        -2.6470071623        1.8118877678       -0.7862881903
  H        -1.8616596015        1.1560574961       -2.4292275316
  H        -2.8248276603        2.8317884013       -2.4378719891
  H        -7.0886387310        0.5064116624       -2.7047767596
  H        -6.2183681631        0.0750827645       -1.0027045586
  H        -7.5551630364        1.5765595545        0.2510377805
  H        -7.6811368403        2.8515018994       -1.1996187416
  H        -8.7654125863        1.2477572126       -1.1860093533
  H         0.3901870728        8.1935435674       -4.5860453629
  H        -0.8784468702        7.0062833985       -2.6122995189
  H        -2.3420871826        4.7634849055       -2.9820362322
  H         1.6495329081        8.3796724573       -6.1188436793
  H         2.4478651090        6.2456596817       -8.4051341645
  H         3.6510109006        7.6026467929       -7.6639865962
  H         2.9535519462        4.8461738619       -6.6132940991
  H         4.1446005402        6.1801847479       -5.9004383792
  H         2.2807067774        6.1698036310       -5.3783241216
  H         2.3973894856        9.6134793861       -8.2445403600
  H         1.3585848175        8.3728047557       -9.3658180773
  H        -0.0640755549       10.0670699145       -7.0660660032
  H         0.4183751306       10.8925937430       -8.7413129225
  H        -0.7497567790        9.3596653507       -8.7391691794
  H         1.1425049202        4.7018516867      -14.5704687696
  H         1.4404887198        6.7502167412      -12.9109508216
  H         0.6655151889        6.5807177295      -10.3173322561
  H         1.2717698091        1.0795601057      -12.4116913063
  H         0.6935616045        0.4848045784      -15.5660296042
  H         1.7511681356       -0.6551292745      -14.3604930158
  H        -0.4999503282       -0.6462292544      -12.8095095358
  H        -1.3960811832       -0.0352078140      -14.4257789128
  H        -0.4412101120       -1.7091081830      -14.4402440547
  H         3.2241219486        1.0305409654      -14.5053571202
  H         2.4119825845        2.7843891938      -14.8315024824
  H         3.9177688897        1.6616146323      -12.2096738649
  H         4.2949221947        3.1869027758      -13.3253221706
  H         2.7433320114        3.2204380945      -12.1957889227
  H        -7.6572989491        1.6916321503      -13.6890177340
  H        -5.4752864972        1.6701100293      -15.1446778421
  H        -3.0223522479        1.4690361030      -14.0297218287
  H        -8.7885583684        0.7221434460      -12.4378011548
  H        -9.2253725987        0.1220256973       -9.2885827040
  H       -10.2931500157       -0.5522663225      -10.7922003173
  H        -7.9103785473       -1.7908331055       -9.5390684571
  H        -8.7603731204       -2.2743461437      -11.1862538381
  H        -7.2664917803       -1.0265205318      -11.1867179024
  H       -10.8884807547        1.8296882997      -11.4646117858
  H        -9.8697092340        2.4079043465       -9.8730403150
  H        -9.1869512871        4.3404521224      -10.9793026229
  H        -8.4703852013        3.3270248979      -12.4535275821
  H       -10.3307406249        3.8804937569      -12.4366742790
     233
 i =        2, E =     -1111.5526265338
  C         8.3740542278        1.0789610768       -8.7978223569
  C         6.8636227813        0.5918809484       -8.7010506400
  O         6.1950747393        1.1554131567       -9.9659377146
  C         4.7949796010        0.7733500482       -9.9029033490
  C         3.8819053405        1.5946732570       -9.0681869415
  C         2.4988246093        1.2196238004       -9.3214393797
  C         2.1360806875        0.0052460405      -10.0355890297
  C         2.9962857771       -0.9148907549      -10.7557532341
  C         4.4109558977       -0.5487350178      -10.5351441237
  O         5.4800377894       -1.3727873923      -11.0810670090
  C         5.5127431459       -0.9970233655      -12.5760598813
  C         6.6140300024       -1.9648657001      -13.1726753714
  C         0.7023168523       -0.2342951105       -9.7376942418
  N         0.1226390266       -1.3130965216      -10.4487973150
  C        -1.2113477269       -1.4512173586       -9.9806023013
  N        -1.9789827863       -0.7656929293       -8.9750352600
 Dy        -1.8146349622        1.1980359292       -8.0357007493
  N         0.1665583692        0.7584720361       -8.8282568491
  C         1.2527541653        1.6693115692       -8.6187013227
  N         1.4720767791        2.6381453108       -7.5940396217
  C         0.8079602200        2.1418522404       -6.4309459578
  C         1.7266105961        1.9791290525       -5.2506635816
  C         3.1505700171        2.2841645491       -5.1330098004
  C         3.6434361971        1.8521130291       -3.7943434865
  O         4.9571788016        2.2637821915       -3.3177555013
  C         5.9561438141        1.4623119784       -4.1822849667
  C         7.3648310003        2.0155658983       -3.7444850066
  C         2.9418618288        0.8453329357       -2.9075135262
  C         1.4939688417        0.5486388953       -3.0518822637
  C         1.0187869412        1.1193118925       -4.3070232868
  C        -0.2848371564        0.7956554719       -4.9479547792
  N        -1.1285303558       -0.0628959272       -4.2023476830
  C        -2.2003395026       -0.4458848559       -5.0538590985
  N        -2.4548575463       -0.2656305569       -6.4577127481
  C        -3.6918470519       -0.9995407880       -6.6776405652
  N        -4.2676454292       -1.5214956481       -7.8883836397
  C        -3.2231362138       -1.5216290433       -8.8838058923
  C        -3.2446881832       -2.6424610675       -9.8648762734
  C        -1.9432354983       -2.6289199669      -10.5139234125
  C        -1.3687156841       -3.6450288533      -11.3693798618
  C        -2.3395349976       -4.7462916271      -11.5551805799
  O        -1.9069012244       -5.8690992996      -12.3756266981
  C        -1.2878706598       -6.8662642556      -11.3619410258
  C        -0.9210098729       -8.1110394290      -12.2526771982
  C        -3.6083597820       -4.8759001544      -10.7089770177
  C        -4.1774358061       -3.7518485326       -9.9186312649
  O        -4.4259912574       -6.0645736228      -10.8841853679
  C        -5.2734290310       -5.7815343658      -12.1499417584
  C        -6.2317115572       -7.0323780164      -12.2463547407
  C        -4.2226232651       -1.5690617748       -5.4098646161
  C        -3.1807894100       -1.3658515020       -4.4206913144
  C        -2.9756581208       -2.0853061322       -3.1797968656
  C        -4.0666022752       -3.0607331937       -2.9622635954
  C        -5.0992303720       -3.3681405725       -4.0546064794
  C        -5.2808434722       -2.5505684640       -5.2781896734
  O        -6.0808185686       -4.4057389931       -3.8186044427
  C        -7.1100915247       -3.7954457113       -2.8447415511
  C        -8.1624242762       -4.9629434953       -2.6524530618
  O        -3.9756749391       -3.9706287019       -1.8338933178
  C        -3.2532181587       -5.2211190847       -2.4027691466
  C        -3.1192863620       -6.2015810447       -1.1714695456
  N        -0.4160149266        1.4049888274       -6.2615534142
  O         3.7331895616        0.3220903109       -1.8003890228
  C         3.2635870115        1.0665162456       -0.5306629228
  C         4.0712845773        0.4011039938        0.6569666306
  N        -3.9384503368        1.8832044237       -7.1790242715
  C        -5.2268672449        1.3769323024       -7.5784253791
  N        -5.7918467230        1.0597630541       -8.8414806481
  C        -4.7717679604        1.1711118608       -9.8220209817
  N        -3.3220280275        1.1967688680       -9.7334014541
  C        -2.8543119795        1.1452523641      -11.0911500321
  N        -1.5739519560        1.3146926759      -11.7031901068
  C        -0.8905821245        2.2732775232      -10.9053645233
  N        -1.2201745521        2.7679984490       -9.5823253425
  C        -0.6345368358        4.0768869577       -9.5491611732
  N        -0.3607339633        4.9826298705       -8.4939580086
  C        -1.0163744018        4.5158640754       -7.3295494248
  N        -1.8569087280        3.3660635872       -7.0691826424
  C        -2.2291887708        3.5511201957       -5.6718047751
  N        -3.2661782522        2.9579121353       -4.8657246063
  C        -4.1215006393        2.2538379820       -5.7773752942
  C        -5.5245760619        2.0295694478       -5.3370408297
  C        -6.2264789617        1.5050451983       -6.4895511181
  C        -7.6684369769        1.3916203794       -6.6512929972
  C        -8.4034571803        1.8288719319       -5.4414224720
  C        -7.6972111413        2.3092973790       -4.2235185548
  C        -6.2172568811        2.4447710961       -4.1203113198
  O        -5.4771087578        3.0069268236       -2.9981406089
  C        -5.3405236825        1.8618477104       -1.9626053500
  C        -4.0596887568        0.9860829127       -2.3085405066
  C        -2.7303484226        1.7666203978       -1.9726447029
  C        -6.6187813568        0.9619087935       -1.7053234659
  C        -7.7486356167        1.7321724670       -0.9162205244
  C        -1.5433928381        4.7197685323       -5.0421781600
  C        -0.8170861698        5.3318862927       -6.1198990643
  C        -0.1837212533        6.6328782150       -6.0914596230
  C        -0.0958157607        7.2290718457       -4.7230999876
  C        -0.8653557991        6.5891926657       -3.6166637035
  C        -1.6801170695        5.3436310812       -3.7382123065
  O         0.2669866309        7.1523992360       -7.3590129077
  C         1.5708280357        7.9402322567       -7.2640910743
  C         2.7392951639        6.8913446415       -7.4604369261
  C         3.0340859988        5.9371393217       -6.2283606021
  C         1.4520321998        9.0251361627       -8.3754775831
  C         0.1407936295        9.8923128698       -8.2037279120
  C         0.0186052636        4.4499264321      -10.8330292603
  C        -0.0660294461        3.2605321668      -11.6672423795
  C         0.2043990970        3.4076531485      -13.1077561772
  C         0.8374768793        4.6837422685      -13.5097644925
  C         1.0154100075        5.8319347234      -12.5841153472
  C         0.5805138266        5.7497317369      -11.1698121786
  O         0.0544410630        2.2448698450      -13.9669060778
  C         1.2067297788        1.2741555196      -13.6007098070
  C         0.8616610640        0.0143325575      -14.4621815946
  C        -0.4910827113       -0.6380681507      -13.9719692210
  C         2.6024307033        1.9201749613      -14.0376673021
  C         3.4358632297        2.5257065051      -12.8316417205
  C        -3.9989547853        1.2157397021      -12.0602565671
  C        -5.1886032649        1.2730527549      -11.2399868199
  C        -6.5470588834        1.4729178050      -11.7244388198
  C        -6.6788642139        1.5431564760      -13.2164007615
  C        -5.4353190450        1.5763682037      -14.0323958031
  C        -4.0445381209        1.4529663347      -13.4968295587
  O        -7.5706613919        1.4764694715      -10.7108172764
  C        -8.9347560705        1.0228927781      -11.2410774763
  C        -9.2688879374       -0.2630991435      -10.4024576698
  C        -8.1975753773       -1.4166308279      -10.6146903702
  C        -9.9102486896        2.2270627266      -11.0482330071
  C        -9.4195783927        3.5383033280      -11.7994461434
  H         8.7431055720        1.2223584889       -7.6414107457
  H         9.0054147074        0.2399544712       -9.4253894714
  H         8.3177556923        2.1511387125       -9.3936240336
  H         6.7143249236       -0.6412621204       -8.7206301349
  H         6.2438476930        0.9912146143       -7.7014629154
  H         4.1319031257        2.5893512352       -8.4213725666
  H         2.5638399296       -1.9185419684      -11.3065764703
  H         4.3947872940       -1.1292612009      -13.0956248494
  H         5.7935174878        0.2077847038      -12.6422570996
  H         7.1597929046       -2.4422785788      -12.1824359346
  H         6.0455237718       -2.8296039828      -13.8136254505
  H         7.3769531797       -1.2794883732      -13.8277954517
  H         3.6817705494        3.0252371124       -5.9298602214
  H         5.7783478261        0.2693932580       -3.8956495018
  H         5.7233318838        1.5811351093       -5.3943537409
  H         7.3358057075        2.0026375444       -2.5197902410
  H         8.1929878799        1.2424620609       -4.1982896996
  H         7.4421291220        3.1551503263       -4.1754582281
  H         0.8020405690       -0.1840351626       -2.3587276274
  H        -0.2540638092       -3.5450052908      -11.8596783816
  H        -0.2996082358       -6.3248408793      -10.8373336388
  H        -2.1039389896       -7.0942886765      -10.4585837708
  H        -0.6723388480       -9.0201432310      -11.4769364938
  H        -1.9203942897       -8.3238980823      -12.9259099842
  H         0.0297775505       -7.7762856674      -12.9433640142
  H        -5.2236371660       -3.7020742248       -9.2947009493
  H        -5.8709823487       -4.6981438260      -12.0609560545
  H        -4.4742603256       -5.6772970306      -13.0931913214
  H        -6.4714942793       -7.3321882795      -11.0810232307
  H        -7.2343895723       -6.6711137979      -12.8385862738
  H        -5.6119800909       -7.9129876751      -12.8164621517
  H        -1.9917521775       -1.9153239956       -2.4665493875
  H        -6.1362178223       -2.6575130699       -6.1367125082
  H        -6.4920078889       -3.4777941763       -1.8220645945
  H        -7.6001063290       -2.7577764907       -3.3157089780
  H        -8.2880039631       -5.1431756834       -1.4560564567
  H        -9.1875627381       -4.6396944065       -3.2240608898
  H        -7.6391715373       -5.9277564309       -3.2019169995
  H        -3.9433844629       -5.6577666040       -3.3296790941
  H        -2.1565193761       -4.8941089441       -2.8788202383
  H        -3.1625369017       -7.3287899530       -1.6376100148
  H        -2.0654302700       -5.9521860888       -0.6118606871
  H        -4.0891058277       -5.9673274686       -0.4617808911
  H         3.5492230631        2.2550563255       -0.7420631477
  H         2.0308987570        1.0004735249       -0.4118529264
  H         3.9634786099       -0.8046628108        0.4366135618
  H         5.2322565644        0.7503220641        0.4613779313
  H         3.5668784840        0.8011149247        1.7103229855
  H        -8.0677916670        0.9474743852       -7.7268719787
  H        -9.6067363286        1.7501319585       -5.4622436714
  H        -8.3008264361        2.7378496474       -3.2706534568
  H        -5.1405468550        2.5093369314       -0.9403563468
  H        -4.1520152418       -0.0387648398       -1.6479959153
  H        -4.0889867538        0.6390698078       -3.4772840667
  H        -2.6426256407        1.8295321679       -0.7557684986
  H        -1.8040438391        1.1431133775       -2.4621147983
  H        -2.8252969239        2.8732266073       -2.4707750303
  H        -7.0477071442        0.4710593075       -2.7377310246
  H        -6.2036784786        0.0195851195       -1.0438349578
  H        -7.5482794251        1.5940882953        0.2787843992
  H        -7.6925446596        2.9106023011       -1.2066248206
  H        -8.8300935822        1.2441724641       -1.1854858957
  H         0.4340745300        8.2967361561       -4.5427026022
  H        -0.8559812978        7.1023301507       -2.5214849461
  H        -2.3714925247        4.7475700484       -2.9242820886
  H         1.6032150285        8.3772728288       -6.1183235257
  H         2.4446754996        6.2700791723       -8.4698869226
  H         3.6720126056        7.6348991716       -7.7233700271
  H         2.9321726652        4.7838351221       -6.5987123184
  H         4.1741073136        6.1770721610       -5.8628893426
  H         2.2486652762        6.1514763777       -5.3246900015
  H         2.4939442667        9.6405866725       -8.2812123093
  H         1.4179728616        8.3514761861       -9.3939886487
  H        -0.0849669603       10.0844679966       -7.0213613350
  H         0.4102747863       10.9416232900       -8.7611141528
  H        -0.8064683327        9.3453361840       -8.7406584591
  H         1.1839288223        4.7295941900      -14.6648329513
  H         1.5042845912        6.8591639472      -12.9881058575
  H         0.6558256103        6.6012714065      -10.2871865191
  H         1.2399504934        1.0731193010      -12.3882164563
  H         0.7528474730        0.4825156483      -15.5901094520
  H         1.8312352727       -0.7097384338      -14.3981786256
  H        -0.5199972761       -0.6514055935      -12.7536919623
  H        -1.4414856928       -0.0146438594      -14.4096122062
  H        -0.4709108034       -1.7594441577      -14.4491895805
  H         3.2256284884        1.0246937338      -14.6163782955
  H         2.4017332149        2.7749625165      -14.8842218208
  H         3.9144075014        1.6335835383      -12.1550312062
  H         4.3285116876        3.2064220511      -13.3170535167
  H         2.7165826393        3.2466093101      -12.1627635248
  H        -7.7429820132        1.7116378106      -13.7522622796
  H        -5.5263888537        1.6902646787      -15.2349506531
  H        -2.9650816583        1.4670022024      -14.0695212067
  H        -8.7486110789        0.7336087110      -12.4193748386
  H        -9.2769631286        0.1669200406       -9.2626531061
  H       -10.4013804085       -0.5398029791      -10.7600772820
  H        -7.8803387080       -1.8191733368       -9.5093680219
  H        -8.7575597436       -2.3141125716      -11.2187545732