srun: Job 11359499 step creation temporarily disabled, retrying (Requested nodes are busy)
srun: Step created for job 11359499
 DBCSR| Multiplication driver                                               XSMM
 DBCSR| Multrec recursion limit                                              512
 DBCSR| Multiplication stack size                                           1000
 DBCSR| Maximum elements for images                                    UNLIMITED
 DBCSR| Multiplicative factor virtual images                                   1
 DBCSR| Randmat seed                                                    12341313
 DBCSR| Multiplication size stacks                                             3
 DBCSR| Number of 3D layers                                               SINGLE
 DBCSR| Use MPI memory allocation                                              T
 DBCSR| Use RMA algorithm                                                      F
 DBCSR| Use Communication thread                                               T
 DBCSR| Communication thread load                                             87


  **** **** ******  **  PROGRAM STARTED AT               2023-03-23 12:29:04.338
 ***** ** ***  *** **   PROGRAM STARTED ON        node121.pri.kelvin2.alces.netw
 **    ****   ******    PROGRAM STARTED BY                              40265864
 ***** **    ** ** **   PROGRAM PROCESS ID                                 23450
  **** **  *******  **  PROGRAM STARTED IN /mnt/scratch2/users/40265864/MSc_ML_M
                                           M/ln_replacements/xyz/Gd_L6_O_O_O_O/p
                                           relim_energy/run-0

 CP2K| version string:                                          CP2K version 4.1
 CP2K| source code revision number:                                    svn:17462
 CP2K| cp2kflags: libint fftw3 libxc parallel mpi3 scalapack libxsmm libderiv_ma
 CP2K|            x_am1=5 libint_max_am=6
 CP2K| is freely available from                            https://www.cp2k.org/
 CP2K| Program compiled at                          Mon 24 Oct 18:14:20 BST 2022
 CP2K| Program compiled on                      login1.pri.kelvin2.alces.network
 CP2K| Program compiled for                                                local
 CP2K| Data directory path                      /users/40265864/source/cp2k/data
 CP2K| Input file name                                       geo-opt-restart.inp

 GLOBAL| Force Environment number                                              1
 GLOBAL| Basis set file name                                 ../BASIS_MOLOPT_UCL
 GLOBAL| Potential file name                                        ../POTENTIAL
 GLOBAL| MM Potential file name                                     MM_POTENTIAL
 GLOBAL| Coordinate file name                            ../../Gd_L6_O_O_O_O.xyz
 GLOBAL| Method name                                                        CP2K
 GLOBAL| Project name                                              Gd_L6_O_O_O_O
 GLOBAL| Preferred FFT library                                             FFTW3
 GLOBAL| Preferred diagonalization lib.                                       SL
 GLOBAL| Run type                                                   ENERGY_FORCE
 GLOBAL| All-to-all communication in single precision                          F
 GLOBAL| FFTs using library dependent lengths                                  F
 GLOBAL| Global print level                                                  LOW
 GLOBAL| Total number of message passing processes                           121
 GLOBAL| Number of threads for this process                                    1
 GLOBAL| This output is from process                                           0
 GLOBAL| CPU model name :  AMD EPYC 7702 64-Core Processor

 MEMORY| system memory details [Kb]
 MEMORY|                        rank 0           min           max       average
 MEMORY| MemTotal            792056644     792056644     792056644     792056644
 MEMORY| MemFree             775997132     775997132     775997636     775997586
 MEMORY| Buffers                100860        100860        100860        100860
 MEMORY| Cached                1188940       1188940       1188940       1188940
 MEMORY| Slab                  1342340       1342340       1342340       1342340
 MEMORY| SReclaimable           363588        363588        363588        363588
 MEMORY| MemLikelyFree       777650520     777650520     777651024     777650974


 GENERATE|  Preliminary Number of Bonds generated:                             0
 GENERATE|  Achieved consistency in connectivity generation.

 *******************************************************************************
 *******************************************************************************
 **                                                                           **
 **     #####                         ##              ##                      **
 **    ##   ##            ##          ##              ##                      **
 **   ##     ##                       ##            ######                    **
 **   ##     ##  ##   ##  ##   #####  ##  ##   ####   ##    #####    #####    **
 **   ##     ##  ##   ##  ##  ##      ## ##   ##      ##   ##   ##  ##   ##   **
 **   ##  ## ##  ##   ##  ##  ##      ####     ###    ##   ######   ######    **
 **    ##  ###   ##   ##  ##  ##      ## ##      ##   ##   ##       ##        **
 **     #######   #####   ##   #####  ##  ##  ####    ##    #####   ##        **
 **           ##                                                    ##        **
 **                                                                           **
 **                                                ... make the atoms dance   **
 **                                                                           **
 **            Copyright (C) by CP2K developers group (2000 - 2016)           **
 **                                                                           **
 *******************************************************************************


 SCF PARAMETERS         Density guess:                                   RESTART
                        --------------------------------------------------------
                        max_scf:                                              50
                        max_scf_history:                                       0
                        max_diis:                                              4
                        --------------------------------------------------------
                        eps_scf:                                        1.00E-06
                        eps_scf_history:                                0.00E+00
                        eps_diis:                                       1.00E-01
                        eps_eigval:                                     1.00E-05
                        --------------------------------------------------------
                        level_shift [a.u.]:                                 0.00
                        --------------------------------------------------------
                        Outer loop SCF in use 
                        No variables optimised in outer loop
                        eps_scf                                         1.00E-06
                        max_scf                                               20
                        No outer loop optimization
                        step_size                                       5.00E-01

 Spin 1

 Number of electrons:                                                        524
 Number of occupied orbitals:                                                524
 Number of molecular orbitals:                                               524

 Spin 2

 Number of electrons:                                                        523
 Number of occupied orbitals:                                                523
 Number of molecular orbitals:                                               523

 Number of orbital functions:                                               3702
 Number of independent orbital functions:                                   3702

 Extrapolation method: initial_guess

 *** WARNING in qs_initial_guess.F:262 :: User requested to restart the    ***
 *** wavefunction from the file named: Gd_L6_O_O_O_O-RESTART.wfn. This     ***
 *** file does not exist. Please check the existence of the file or change ***
 *** properly the value of the keyword WFN_RESTART_FILE_NAME. Calculation  ***
 *** continues using ATOMIC GUESS.                                         ***



 SCF WAVEFUNCTION OPTIMIZATION

  ----------------------------------- OT ---------------------------------------
  Minimizer      : DIIS                : direct inversion
                                         in the iterative subspace
                                         using   7 DIIS vectors
                                         safer DIIS on
  Preconditioner : FULL_KINETIC        : inversion of T + eS
  Precond_solver : DEFAULT
  stepsize       :    0.15000000                  energy_gap     :    0.20000000
  eps_taylor     :   0.10000E-15                  max_taylor     :             4
  ----------------------------------- OT ---------------------------------------

  Step     Update method      Time    Convergence         Total energy    Change
  ------------------------------------------------------------------------------
     1 OT DIIS     0.15E+00   24.8     0.00710355     -1419.4681327851 -1.42E+03
     2 OT DIIS     0.15E+00   28.4     0.00501494     -1443.6814280552 -2.42E+01
     3 OT DIIS     0.15E+00   16.7     0.00368468     -1464.5535393327 -2.09E+01
     4 OT DIIS     0.15E+00   16.6     0.00283286     -1481.7146891291 -1.72E+01
     5 OT DIIS     0.15E+00   17.0     0.00228343     -1493.6401977203 -1.19E+01
     6 OT DIIS     0.15E+00   16.8     0.00182288     -1503.2054340373 -9.57E+00
     7 OT DIIS     0.15E+00   17.0     0.00142994     -1510.3508638927 -7.15E+00
     8 OT DIIS     0.15E+00   16.8     0.00112428     -1515.3399605970 -4.99E+00
     9 OT DIIS     0.15E+00   20.3     0.00094214     -1518.0143166979 -2.67E+00
    10 OT DIIS     0.15E+00   20.8     0.00077648     -1520.0997771016 -2.09E+00
    11 OT DIIS     0.15E+00   17.8     0.00065319     -1521.6143180862 -1.51E+00
    12 OT DIIS     0.15E+00   16.6     0.00054008     -1522.8502980610 -1.24E+00
    13 OT DIIS     0.15E+00   16.9     0.00047850     -1523.5128688120 -6.63E-01
    14 OT DIIS     0.15E+00   16.1     0.00040114     -1524.2697765426 -7.57E-01
    15 OT DIIS     0.15E+00   16.2     0.00035511     -1524.6942361386 -4.24E-01
    16 OT DIIS     0.15E+00   16.1     0.00030118     -1525.1599511450 -4.66E-01
    17 OT DIIS     0.15E+00   16.9     0.00025746     -1525.5079988586 -3.48E-01
    18 OT DIIS     0.15E+00   18.6     0.00022823     -1525.7177293744 -2.10E-01
    19 OT DIIS     0.15E+00   16.2     0.00020452     -1525.8775233626 -1.60E-01
    20 OT DIIS     0.15E+00   16.3     0.00017376     -1526.0746415734 -1.97E-01
    21 OT DIIS     0.15E+00   16.3     0.00015433     -1526.1990314757 -1.24E-01
    22 OT DIIS     0.15E+00   16.4     0.00013653     -1526.2772079730 -7.82E-02
    23 OT DIIS     0.15E+00   16.3     0.00012703     -1526.3263103947 -4.91E-02
    24 OT DIIS     0.15E+00   22.1     0.00012223     -1526.3936472451 -6.73E-02
    25 OT DIIS     0.15E+00   16.2     0.00011240     -1526.4317146143 -3.81E-02
    26 OT DIIS     0.15E+00   29.9     0.00010650     -1526.4768704340 -4.52E-02
    27 OT DIIS     0.15E+00   24.5     0.00009679     -1526.5216987598 -4.48E-02
    28 OT DIIS     0.15E+00   27.2     0.00008591     -1526.5724497840 -5.08E-02
    29 OT DIIS     0.15E+00   30.3     0.00007996     -1526.6104683920 -3.80E-02
    30 OT DIIS     0.15E+00   22.6     0.00007843     -1526.6336273784 -2.32E-02
    31 OT DIIS     0.15E+00   16.5     0.00007036     -1526.6625671974 -2.89E-02
    32 OT DIIS     0.15E+00   18.5     0.00006974     -1526.6747422928 -1.22E-02
    33 OT DIIS     0.15E+00   16.3     0.00006728     -1526.6848047149 -1.01E-02
    34 OT DIIS     0.15E+00   19.3     0.00006589     -1526.6944285550 -9.62E-03
    35 OT DIIS     0.15E+00   16.2     0.00006080     -1526.7350387031 -4.06E-02
    36 OT DIIS     0.15E+00   16.5     0.00005567     -1526.7612670732 -2.62E-02
    37 OT DIIS     0.15E+00   16.5     0.00005366     -1526.7752539156 -1.40E-02
    38 OT DIIS     0.15E+00   29.3     0.00005023     -1526.7979566144 -2.27E-02
    39 OT DIIS     0.15E+00   16.8     0.00004892     -1526.8075985625 -9.64E-03
    40 OT DIIS     0.15E+00   18.4     0.00004794     -1526.8197938912 -1.22E-02
    41 OT DIIS     0.15E+00   23.4     0.00004712     -1526.8233790228 -3.59E-03
    42 OT DIIS     0.15E+00   24.9     0.00004621     -1526.8318210114 -8.44E-03
    43 OT DIIS     0.15E+00   28.4     0.00004536     -1526.8392205249 -7.40E-03
    44 OT DIIS     0.15E+00   28.8     0.00004368     -1526.8551039747 -1.59E-02
    45 OT DIIS     0.15E+00   16.2     0.00004310     -1526.8621920927 -7.09E-03
    46 OT DIIS     0.15E+00   16.6     0.00004274     -1526.8676914820 -5.50E-03
    47 OT DIIS     0.15E+00   16.4     0.00004217     -1526.8777281823 -1.00E-02
    48 OT DIIS     0.15E+00   16.4     0.00004208     -1526.8830139089 -5.29E-03
    49 OT DIIS     0.15E+00   16.9     0.00004199     -1526.8836581532 -6.44E-04
    50 OT DIIS     0.15E+00   17.2     0.00004184     -1526.8907927287 -7.13E-03

  Leaving inner SCF loop after reaching    50 steps.


  Electronic density on regular grids:      -1046.9999999711        0.0000000289
  Core density on regular grids:             1049.9999999271       -0.0000000729
  Total charge density on r-space grids:        2.9999999559
  Total charge density g-space grids:           2.9999999559

  Overlap energy of the core charge distribution:               0.00009108160821
  Self energy of the core charge distribution:              -3603.95462265793367
  Core Hamiltonian energy:                                   1130.66634023412234
  Hartree energy:                                            1410.73971724417402
  Exchange-correlation energy:                               -464.34231863065884

  Total energy:                                             -1526.89079272868776

  outer SCF iter =    1 RMS gradient =   0.42E-04 energy =      -1526.8907927287

  ----------------------------------- OT ---------------------------------------
  Minimizer      : DIIS                : direct inversion
                                         in the iterative subspace
                                         using   7 DIIS vectors
                                         safer DIIS on
  Preconditioner : FULL_KINETIC        : inversion of T + eS
  Precond_solver : DEFAULT
  stepsize       :    0.15000000                  energy_gap     :    0.20000000
  eps_taylor     :   0.10000E-15                  max_taylor     :             4
  ----------------------------------- OT ---------------------------------------

  Step     Update method      Time    Convergence         Total energy    Change
  ------------------------------------------------------------------------------
     1 OT DIIS     0.15E+00   36.0     0.00007844     -1526.8909551431 -1.62E-04
     2 OT DIIS     0.15E+00   16.6     0.00007086     -1526.8943511327 -3.40E-03
     3 OT DIIS     0.15E+00   23.8     0.00004961     -1526.9065563541 -1.22E-02
     4 OT DIIS     0.15E+00   31.5     0.00004234     -1526.9134120075 -6.86E-03
     5 OT DIIS     0.15E+00   17.6     0.00003868     -1526.9188898669 -5.48E-03
     6 OT DIIS     0.15E+00   23.9     0.00003627     -1526.9239994197 -5.11E-03
     7 OT DIIS     0.15E+00   25.1     0.00003474     -1526.9287110992 -4.71E-03
     8 OT DIIS     0.15E+00   16.7     0.00003341     -1526.9344371903 -5.73E-03
     9 OT DIIS     0.15E+00   23.9     0.00003212     -1526.9413157407 -6.88E-03
    10 OT DIIS     0.15E+00   26.1     0.00003125     -1526.9474190171 -6.10E-03
    11 OT DIIS     0.15E+00   15.9     0.00003057     -1526.9532343342 -5.82E-03
    12 OT DIIS     0.15E+00   17.5     0.00002999     -1526.9589469331 -5.71E-03
    13 OT DIIS     0.15E+00   16.1     0.00002952     -1526.9647698698 -5.82E-03
    14 OT DIIS     0.15E+00   16.4     0.00002920     -1526.9695572921 -4.79E-03
    15 OT DIIS     0.15E+00   16.4     0.00002894     -1526.9744013096 -4.84E-03
    16 OT DIIS     0.15E+00   16.4     0.00002875     -1526.9789295232 -4.53E-03
    17 OT DIIS     0.15E+00   16.2     0.00002861     -1526.9828466336 -3.92E-03
    18 OT DIIS     0.15E+00   16.3     0.00002850     -1526.9867093147 -3.86E-03
    19 OT DIIS     0.15E+00   16.2     0.00002841     -1526.9903970020 -3.69E-03
    20 OT DIIS     0.15E+00   16.3     0.00002835     -1526.9935083478 -3.11E-03
    21 OT DIIS     0.15E+00   16.5     0.00002828     -1526.9971930177 -3.68E-03
    22 OT DIIS     0.15E+00   16.3     0.00002824     -1526.9995825136 -2.39E-03
    23 OT DIIS     0.15E+00   16.3     0.00002817     -1527.0034649256 -3.88E-03
    24 OT DIIS     0.15E+00   16.5     0.00002811     -1527.0066884273 -3.22E-03
    25 OT DIIS     0.15E+00   16.5     0.00002805     -1527.0102412837 -3.55E-03
    26 OT DIIS     0.15E+00   26.0     0.00002801     -1527.0120261930 -1.78E-03
    27 OT DIIS     0.15E+00   28.0     0.00002787     -1527.0176418937 -5.62E-03
    28 OT DIIS     0.15E+00   16.4     0.00002772     -1527.0217624872 -4.12E-03
    29 OT DIIS     0.15E+00   16.2     0.00002717     -1527.0323904499 -1.06E-02
    30 OT DIIS     0.15E+00   29.2     0.00002664     -1527.0406933321 -8.30E-03
    31 OT DIIS     0.15E+00   30.4     0.00002586     -1527.0497916346 -9.10E-03
    32 OT DIIS     0.15E+00   29.6     0.00002496     -1527.0582328578 -8.44E-03
    33 OT DIIS     0.15E+00   24.6     0.00002388     -1527.0671901810 -8.96E-03
    34 OT DIIS     0.15E+00   16.2     0.00002291     -1527.0730568924 -5.87E-03
    35 OT DIIS     0.15E+00   17.5     0.00002103     -1527.0816354181 -8.58E-03
    36 OT DIIS     0.15E+00   16.5     0.00001954     -1527.0909770937 -9.34E-03
    37 OT DIIS     0.15E+00   16.1     0.00001921     -1527.0915165776 -5.39E-04
    38 OT DIIS     0.15E+00   16.2     0.00001841     -1527.0934989200 -1.98E-03
    39 OT DIIS     0.15E+00   25.9     0.00001764     -1527.0959509228 -2.45E-03
    40 OT DIIS     0.15E+00   16.1     0.00001722     -1527.0980313525 -2.08E-03
    41 OT DIIS     0.15E+00   16.0     0.00001688     -1527.1001270857 -2.10E-03
    42 OT DIIS     0.15E+00   18.8     0.00001672     -1527.1011186382 -9.92E-04
    43 OT DIIS     0.15E+00   16.6     0.00001653     -1527.1027098073 -1.59E-03
    44 OT DIIS     0.15E+00   16.8     0.00001637     -1527.1046284933 -1.92E-03
    45 OT DIIS     0.15E+00   16.9     0.00001631     -1527.1053809785 -7.52E-04
    46 OT DIIS     0.15E+00   25.3     0.00001614     -1527.1076122708 -2.23E-03
    47 OT DIIS     0.15E+00   27.7     0.00001595     -1527.1109334915 -3.32E-03
    48 OT DIIS     0.15E+00   27.5     0.00001589     -1527.1127448453 -1.81E-03
    49 OT DIIS     0.15E+00   17.2     0.00001584     -1527.1140289844 -1.28E-03
    50 OT DIIS     0.15E+00   16.8     0.00001581     -1527.1153282955 -1.30E-03

  Leaving inner SCF loop after reaching    50 steps.


  Electronic density on regular grids:      -1046.9999999713        0.0000000287
  Core density on regular grids:             1049.9999999271       -0.0000000729
  Total charge density on r-space grids:        2.9999999558
  Total charge density g-space grids:           2.9999999558

  Overlap energy of the core charge distribution:               0.00009108160821
  Self energy of the core charge distribution:              -3603.95462265793367
  Core Hamiltonian energy:                                   1131.09567764459371
  Hartree energy:                                            1410.31759383839631
  Exchange-correlation energy:                               -464.57406820217579

  Total energy:                                             -1527.11532829551106

  outer SCF iter =    2 RMS gradient =   0.16E-04 energy =      -1527.1153282955

  ----------------------------------- OT ---------------------------------------
  Minimizer      : DIIS                : direct inversion
                                         in the iterative subspace
                                         using   7 DIIS vectors
                                         safer DIIS on
  Preconditioner : FULL_KINETIC        : inversion of T + eS
  Precond_solver : DEFAULT
  stepsize       :    0.15000000                  energy_gap     :    0.20000000
  eps_taylor     :   0.10000E-15                  max_taylor     :             4
  ----------------------------------- OT ---------------------------------------

  Step     Update method      Time    Convergence         Total energy    Change
  ------------------------------------------------------------------------------
     1 OT DIIS     0.15E+00   43.3     0.00002107     -1527.1161775330 -8.49E-04
     2 OT DIIS     0.15E+00   22.9     0.00002052     -1527.1164319525 -2.54E-04
     3 OT DIIS     0.15E+00   16.8     0.00001925     -1527.1176987455 -1.27E-03
     4 OT DIIS     0.15E+00   16.0     0.00001899     -1527.1187251168 -1.03E-03
     5 OT DIIS     0.15E+00   16.1     0.00001875     -1527.1209291550 -2.20E-03
     6 OT DIIS     0.15E+00   16.4     0.00001871     -1527.1214182082 -4.89E-04
     7 OT DIIS     0.15E+00   26.8     0.00001859     -1527.1239329962 -2.51E-03
     8 OT DIIS     0.15E+00   23.7     0.00001848     -1527.1264171742 -2.48E-03
     9 OT DIIS     0.15E+00   16.4     0.00001841     -1527.1282970755 -1.88E-03
    10 OT DIIS     0.15E+00   16.1     0.00001838     -1527.1297187386 -1.42E-03
    11 OT DIIS     0.15E+00   24.1     0.00001836     -1527.1308863185 -1.17E-03
    12 OT SD       0.15E+00   17.8     0.00001836     -1527.1316361137 -7.50E-04
    13 OT SD       0.15E+00   16.1     0.00001836     -1527.1318321652 -1.96E-04
    14 OT SD       0.15E+00   20.3     0.00001837     -1527.1320282415 -1.96E-04
    15 OT SD       0.15E+00   16.7     0.00001837     -1527.1322243581 -1.96E-04
    16 OT SD       0.15E+00   19.8     0.00001837     -1527.1324205134 -1.96E-04
    17 OT SD       0.15E+00   16.1     0.00001837     -1527.1326167269 -1.96E-04
    18 OT SD       0.15E+00   25.2     0.00001838     -1527.1328129939 -1.96E-04
    19 OT SD       0.15E+00   26.2     0.00001838     -1527.1330093169 -1.96E-04
    20 OT SD       0.15E+00   16.3     0.00001838     -1527.1332056978 -1.96E-04
    21 OT SD       0.15E+00   16.2     0.00001838     -1527.1334021385 -1.96E-04
    22 OT SD       0.15E+00   16.0     0.00001839     -1527.1335986409 -1.97E-04
    23 OT SD       0.15E+00   24.4     0.00001839     -1527.1337952064 -1.97E-04
    24 OT SD       0.15E+00   25.0     0.00001839     -1527.1339918369 -1.97E-04
    25 OT SD       0.15E+00   16.6     0.00001840     -1527.1341885336 -1.97E-04
    26 OT SD       0.15E+00   23.0     0.00001840     -1527.1343852981 -1.97E-04
    27 OT SD       0.15E+00   16.2     0.00001840     -1527.1345821318 -1.97E-04
    28 OT SD       0.15E+00   16.2     0.00001841     -1527.1347790360 -1.97E-04
    29 OT DIIS     0.15E+00   26.6     0.00001841     -1527.1349760119 -1.97E-04
    30 OT SD       0.15E+00   16.3     0.00003249     -1527.1344953574  4.81E-04
    31 OT SD       0.15E+00   24.6     0.00002570     -1527.1350367185 -5.41E-04
    32 OT SD       0.15E+00   16.7     0.00002276     -1527.1353950845 -3.58E-04
    33 OT SD       0.15E+00   16.9     0.00002145     -1527.1356860647 -2.91E-04
    34 OT SD       0.15E+00   27.3     0.00002082     -1527.1359489843 -2.63E-04
    35 OT SD       0.15E+00   28.2     0.00002048     -1527.1361985769 -2.50E-04
    36 OT DIIS     0.15E+00   28.7     0.00002027     -1527.1364409742 -2.42E-04
    37 OT DIIS     0.15E+00   17.1     0.00001970     -1527.1404050719 -3.96E-03
    38 OT SD       0.15E+00   16.1     0.00001976     -1527.1426579304 -2.25E-03
    39 OT SD       0.15E+00   16.1     0.00001973     -1527.1428846843 -2.27E-04
    40 OT SD       0.15E+00   26.3     0.00001972     -1527.1431109652 -2.26E-04
    41 OT SD       0.15E+00   25.7     0.00001972     -1527.1433371012 -2.26E-04
    42 OT SD       0.15E+00   16.5     0.00001972     -1527.1435632084 -2.26E-04
    43 OT SD       0.15E+00   16.6     0.00001972     -1527.1437893371 -2.26E-04
    44 OT SD       0.15E+00   26.2     0.00001973     -1527.1440155137 -2.26E-04
    45 OT SD       0.15E+00   17.8     0.00001973     -1527.1442417542 -2.26E-04
    46 OT SD       0.15E+00   16.5     0.00001973     -1527.1444680697 -2.26E-04
    47 OT SD       0.15E+00   17.1     0.00001974     -1527.1446944687 -2.26E-04
    48 OT SD       0.15E+00   17.0     0.00001974     -1527.1449209577 -2.26E-04
    49 OT SD       0.15E+00   26.5     0.00001974     -1527.1451475423 -2.27E-04
    50 OT SD       0.15E+00   26.7     0.00001975     -1527.1453742275 -2.27E-04

  Leaving inner SCF loop after reaching    50 steps.


  Electronic density on regular grids:      -1046.9999995671        0.0000004329
  Core density on regular grids:             1049.9999999271       -0.0000000729
  Total charge density on r-space grids:        3.0000003600
  Total charge density g-space grids:           3.0000003600

  Overlap energy of the core charge distribution:               0.00009108160821
  Self energy of the core charge distribution:              -3603.95462265793367
  Core Hamiltonian energy:                                   1131.07940083406993
  Hartree energy:                                            1410.32163950779204
  Exchange-correlation energy:                               -464.59188299307658

  Total energy:                                             -1527.14537422753983

  outer SCF iter =    3 RMS gradient =   0.20E-04 energy =      -1527.1453742275

  ----------------------------------- OT ---------------------------------------
  Minimizer      : DIIS                : direct inversion
                                         in the iterative subspace
                                         using   7 DIIS vectors
                                         safer DIIS on
  Preconditioner : FULL_KINETIC        : inversion of T + eS
  Precond_solver : DEFAULT
  stepsize       :    0.15000000                  energy_gap     :    0.20000000
  eps_taylor     :   0.10000E-15                  max_taylor     :             4
  ----------------------------------- OT ---------------------------------------

  Step     Update method      Time    Convergence         Total energy    Change
  ------------------------------------------------------------------------------
     1 OT DIIS     0.15E+00   55.3     0.00002046     -1527.1456010176 -2.27E-04
     2 OT DIIS     0.15E+00   22.9     0.00002027     -1527.1458433181 -2.42E-04
     3 OT DIIS     0.15E+00   22.3     0.00001989     -1527.1469353195 -1.09E-03
     4 OT DIIS     0.15E+00   16.0     0.00001971     -1527.1484182037 -1.48E-03
     5 OT DIIS     0.15E+00   16.2     0.00001953     -1527.1512160842 -2.80E-03
     6 OT DIIS     0.15E+00   16.8     0.00001947     -1527.1521436085 -9.28E-04
     7 OT DIIS     0.15E+00   16.2     0.00001926     -1527.1571100359 -4.97E-03
     8 OT DIIS     0.15E+00   16.2     0.00001907     -1527.1596825115 -2.57E-03
     9 OT DIIS     0.15E+00   26.1     0.00001897     -1527.1618824148 -2.20E-03
    10 OT DIIS     0.15E+00   16.9     0.00001894     -1527.1633462466 -1.46E-03
    11 OT DIIS     0.15E+00   15.7     0.00001894     -1527.1633887416 -4.25E-05
    12 OT DIIS     0.15E+00   16.3     0.00001891     -1527.1635995860 -2.11E-04
    13 OT SD       0.15E+00   15.9     0.00001884     -1527.1647120185 -1.11E-03
    14 OT DIIS     0.15E+00   15.9     0.00001882     -1527.1649182005 -2.06E-04
    15 OT DIIS     0.15E+00   20.8     0.00001874     -1527.1670263317 -2.11E-03
    16 OT SD       0.15E+00   16.0     0.00001870     -1527.1691520880 -2.13E-03
    17 OT SD       0.15E+00   16.0     0.00001870     -1527.1693554083 -2.03E-04
    18 OT SD       0.15E+00   15.9     0.00001870     -1527.1695587295 -2.03E-04
    19 OT SD       0.15E+00   16.5     0.00001871     -1527.1697621716 -2.03E-04
    20 OT SD       0.15E+00   25.4     0.00001872     -1527.1699657897 -2.04E-04
    21 OT SD       0.15E+00   16.4     0.00001873     -1527.1701696169 -2.04E-04
    22 OT SD       0.15E+00   16.2     0.00001874     -1527.1703736772 -2.04E-04
    23 OT SD       0.15E+00   16.4     0.00001876     -1527.1705779895 -2.04E-04
    24 OT SD       0.15E+00   16.8     0.00001877     -1527.1707825703 -2.05E-04
    25 OT SD       0.15E+00   16.6     0.00001878     -1527.1709874338 -2.05E-04
    26 OT SD       0.15E+00   25.2     0.00001880     -1527.1711925932 -2.05E-04
    27 OT SD       0.15E+00   16.3     0.00001881     -1527.1713980607 -2.05E-04
    28 OT SD       0.15E+00   16.2     0.00001882     -1527.1716038478 -2.06E-04
    29 OT SD       0.15E+00   16.2     0.00001884     -1527.1718099652 -2.06E-04
    30 OT SD       0.15E+00   16.4     0.00001886     -1527.1720164237 -2.06E-04
    31 OT SD       0.15E+00   26.2     0.00001887     -1527.1722232333 -2.07E-04
    32 OT SD       0.15E+00   16.3     0.00001889     -1527.1724304040 -2.07E-04
    33 OT SD       0.15E+00   16.5     0.00001891     -1527.1726379454 -2.08E-04
    34 OT SD       0.15E+00   16.7     0.00001892     -1527.1728458673 -2.08E-04
    35 OT SD       0.15E+00   25.8     0.00001894     -1527.1730541790 -2.08E-04
    36 OT SD       0.15E+00   16.3     0.00001896     -1527.1732628898 -2.09E-04
    37 OT SD       0.15E+00   16.2     0.00001898     -1527.1734720090 -2.09E-04
    38 OT SD       0.15E+00   25.0     0.00001900     -1527.1736815460 -2.10E-04
    39 OT SD       0.15E+00   26.5     0.00001902     -1527.1738915097 -2.10E-04
    40 OT SD       0.15E+00   26.5     0.00001904     -1527.1741019095 -2.10E-04
    41 OT SD       0.15E+00   26.5     0.00001906     -1527.1743127544 -2.11E-04
    42 OT SD       0.15E+00   24.2     0.00001908     -1527.1745240536 -2.11E-04
    43 OT SD       0.15E+00   16.8     0.00001910     -1527.1747358163 -2.12E-04
    44 OT SD       0.15E+00   17.6     0.00001912     -1527.1749480516 -2.12E-04
    45 OT SD       0.15E+00   16.4     0.00001914     -1527.1751607686 -2.13E-04
    46 OT SD       0.15E+00   16.2     0.00001917     -1527.1753739766 -2.13E-04
    47 OT SD       0.15E+00   25.6     0.00001919     -1527.1755876847 -2.14E-04
    48 OT SD       0.15E+00   25.3     0.00001921     -1527.1758019023 -2.14E-04
    49 OT SD       0.15E+00   17.0     0.00001924     -1527.1760166385 -2.15E-04
    50 OT SD       0.15E+00   16.1     0.00001926     -1527.1762319027 -2.15E-04

  Leaving inner SCF loop after reaching    50 steps.


  Electronic density on regular grids:      -1046.9999999713        0.0000000287
  Core density on regular grids:             1049.9999999271       -0.0000000729
  Total charge density on r-space grids:        2.9999999558
  Total charge density g-space grids:           2.9999999558

  Overlap energy of the core charge distribution:               0.00009108160821
  Self energy of the core charge distribution:              -3603.95462265793367
  Core Hamiltonian energy:                                   1131.00974754641948
  Hartree energy:                                            1410.37467902395906
  Exchange-correlation energy:                               -464.60612689672234

  Total energy:                                             -1527.17623190266886

  outer SCF iter =    4 RMS gradient =   0.19E-04 energy =      -1527.1762319027

  ----------------------------------- OT ---------------------------------------
  Minimizer      : DIIS                : direct inversion
                                         in the iterative subspace
                                         using   7 DIIS vectors
                                         safer DIIS on
  Preconditioner : FULL_KINETIC        : inversion of T + eS
  Precond_solver : DEFAULT
  stepsize       :    0.15000000                  energy_gap     :    0.20000000
  eps_taylor     :   0.10000E-15                  max_taylor     :             4
  ----------------------------------- OT ---------------------------------------

  Step     Update method      Time    Convergence         Total energy    Change
  ------------------------------------------------------------------------------
     1 OT DIIS     0.15E+00   35.4     0.00001925     -1527.1764477042 -2.16E-04
     2 OT DIIS     0.15E+00   18.3     0.00001917     -1527.1766625322 -2.15E-04
     3 OT DIIS     0.15E+00   16.2     0.00001905     -1527.1775382277 -8.76E-04
     4 OT SD       0.15E+00   23.1     0.00001905     -1527.1780161259 -4.78E-04
     5 OT SD       0.15E+00   16.2     0.00001906     -1527.1782271431 -2.11E-04
     6 OT SD       0.15E+00   16.1     0.00001907     -1527.1784383546 -2.11E-04
     7 OT SD       0.15E+00   17.3     0.00001908     -1527.1786497973 -2.11E-04
     8 OT SD       0.15E+00   16.3     0.00001909     -1527.1788615006 -2.12E-04
     9 OT SD       0.15E+00   16.1     0.00001911     -1527.1790734893 -2.12E-04
    10 OT SD       0.15E+00   16.8     0.00001912     -1527.1792857852 -2.12E-04
    11 OT SD       0.15E+00   20.8     0.00001913     -1527.1794984075 -2.13E-04
    12 OT SD       0.15E+00   16.0     0.00001915     -1527.1797113735 -2.13E-04
    13 OT SD       0.15E+00   16.1     0.00001917     -1527.1799246991 -2.13E-04
    14 OT SD       0.15E+00   16.6     0.00001918     -1527.1801383988 -2.14E-04
    15 OT SD       0.15E+00   17.3     0.00001920     -1527.1803524865 -2.14E-04
    16 OT SD       0.15E+00   16.4     0.00001922     -1527.1805669749 -2.14E-04
    17 OT SD       0.15E+00   17.0     0.00001924     -1527.1807818762 -2.15E-04
    18 OT SD       0.15E+00   16.7     0.00001926     -1527.1809972021 -2.15E-04
    19 OT SD       0.15E+00   16.5     0.00001928     -1527.1812129638 -2.16E-04
    20 OT SD       0.15E+00   16.3     0.00001930     -1527.1814291720 -2.16E-04
    21 OT SD       0.15E+00   16.4     0.00001932     -1527.1816458372 -2.17E-04
    22 OT SD       0.15E+00   16.6     0.00001934     -1527.1818629696 -2.17E-04
    23 OT SD       0.15E+00   22.1     0.00001936     -1527.1820805792 -2.18E-04
    24 OT SD       0.15E+00   18.5     0.00001938     -1527.1822986757 -2.18E-04
    25 OT SD       0.15E+00   18.3     0.00001941     -1527.1825172686 -2.19E-04
    26 OT SD       0.15E+00   17.6     0.00001943     -1527.1827363673 -2.19E-04
    27 OT SD       0.15E+00   18.4     0.00001945     -1527.1829559812 -2.20E-04
    28 OT SD       0.15E+00   16.8     0.00001948     -1527.1831761194 -2.20E-04
    29 OT SD       0.15E+00   16.5     0.00001950     -1527.1833967908 -2.21E-04
    30 OT SD       0.15E+00   18.0     0.00001952     -1527.1836180046 -2.21E-04
    31 OT SD       0.15E+00   17.9     0.00001955     -1527.1838397695 -2.22E-04
    32 OT SD       0.15E+00   16.5     0.00001957     -1527.1840620944 -2.22E-04
    33 OT SD       0.15E+00   16.4     0.00001960     -1527.1842849879 -2.23E-04
    34 OT SD       0.15E+00   16.5     0.00001962     -1527.1845084588 -2.23E-04
    35 OT SD       0.15E+00   16.3     0.00001965     -1527.1847325156 -2.24E-04
    36 OT SD       0.15E+00   16.9     0.00001968     -1527.1849571668 -2.25E-04
    37 OT SD       0.15E+00   16.6     0.00001970     -1527.1851824210 -2.25E-04
    38 OT SD       0.15E+00   16.8     0.00001973     -1527.1854082866 -2.26E-04
    39 OT SD       0.15E+00   16.6     0.00001976     -1527.1856347720 -2.26E-04
    40 OT SD       0.15E+00   16.6     0.00001979     -1527.1858618856 -2.27E-04
    41 OT SD       0.15E+00   16.5     0.00001981     -1527.1860896357 -2.28E-04
    42 OT SD       0.15E+00   21.7     0.00001984     -1527.1863180306 -2.28E-04
    43 OT SD       0.15E+00   16.1     0.00001987     -1527.1865470786 -2.29E-04
    44 OT SD       0.15E+00   22.7     0.00001990     -1527.1867767878 -2.30E-04
    45 OT SD       0.15E+00   21.0     0.00001993     -1527.1870071665 -2.30E-04
    46 OT SD       0.15E+00   16.7     0.00001996     -1527.1872382227 -2.31E-04
    47 OT SD       0.15E+00   16.1     0.00001999     -1527.1874699647 -2.32E-04
    48 OT SD       0.15E+00   24.1     0.00002002     -1527.1877024005 -2.32E-04
    49 OT SD       0.15E+00   17.1     0.00002005     -1527.1879355382 -2.33E-04
    50 OT SD       0.15E+00   17.3     0.00002008     -1527.1881693859 -2.34E-04

  Leaving inner SCF loop after reaching    50 steps.


  Electronic density on regular grids:      -1046.9999999720        0.0000000280
  Core density on regular grids:             1049.9999999271       -0.0000000729
  Total charge density on r-space grids:        2.9999999550
  Total charge density g-space grids:           2.9999999550

  Overlap energy of the core charge distribution:               0.00009108160821
  Self energy of the core charge distribution:              -3603.95462265793367
  Core Hamiltonian energy:                                   1131.02232540055866
  Hartree energy:                                            1410.36109499753684
  Exchange-correlation energy:                               -464.61705820762381

  Total energy:                                             -1527.18816938585360

  outer SCF iter =    5 RMS gradient =   0.20E-04 energy =      -1527.1881693859

  ----------------------------------- OT ---------------------------------------
  Minimizer      : DIIS                : direct inversion
                                         in the iterative subspace
                                         using   7 DIIS vectors
                                         safer DIIS on
  Preconditioner : FULL_KINETIC        : inversion of T + eS
  Precond_solver : DEFAULT
  stepsize       :    0.15000000                  energy_gap     :    0.20000000
  eps_taylor     :   0.10000E-15                  max_taylor     :             4
  ----------------------------------- OT ---------------------------------------

  Step     Update method      Time    Convergence         Total energy    Change
  ------------------------------------------------------------------------------
     1 OT DIIS     0.15E+00   34.0     0.00002014     -1527.1884039514 -2.35E-04
     2 OT SD       0.15E+00   16.2     0.00002015     -1527.1886397768 -2.36E-04
     3 OT SD       0.15E+00   24.7     0.00002018     -1527.1888760663 -2.36E-04
     4 OT SD       0.15E+00   17.2     0.00002020     -1527.1891129016 -2.37E-04
     5 OT SD       0.15E+00   16.5     0.00002023     -1527.1893503316 -2.37E-04
     6 OT SD       0.15E+00   22.5     0.00002026     -1527.1895883894 -2.38E-04
     7 OT SD       0.15E+00   18.8     0.00002028     -1527.1898270995 -2.39E-04
     8 OT SD       0.15E+00   17.1     0.00002031     -1527.1900664812 -2.39E-04
     9 OT SD       0.15E+00   17.1     0.00002034     -1527.1903065502 -2.40E-04
    10 OT SD       0.15E+00   16.3     0.00002037     -1527.1905473202 -2.41E-04
    11 OT SD       0.15E+00   16.1     0.00002040     -1527.1907888033 -2.41E-04
    12 OT SD       0.15E+00   16.9     0.00002043     -1527.1910310105 -2.42E-04
    13 OT SD       0.15E+00   16.9     0.00002046     -1527.1912739519 -2.43E-04
    14 OT SD       0.15E+00   19.9     0.00002050     -1527.1915176370 -2.44E-04
    15 OT SD       0.15E+00   16.4     0.00002053     -1527.1917620750 -2.44E-04
    16 OT SD       0.15E+00   16.4     0.00002056     -1527.1920072745 -2.45E-04
    17 OT SD       0.15E+00   20.6     0.00002059     -1527.1922532441 -2.46E-04
    18 OT SD       0.15E+00   16.5     0.00002063     -1527.1924999918 -2.47E-04
    19 OT SD       0.15E+00   16.6     0.00002066     -1527.1927475258 -2.48E-04
    20 OT SD       0.15E+00   16.4     0.00002069     -1527.1929958540 -2.48E-04
    21 OT SD       0.15E+00   18.8     0.00002073     -1527.1932449841 -2.49E-04
    22 OT SD       0.15E+00   23.2     0.00002076     -1527.1934949238 -2.50E-04
    23 OT SD       0.15E+00   16.3     0.00002079     -1527.1937456805 -2.51E-04
    24 OT SD       0.15E+00   16.6     0.00002083     -1527.1939972618 -2.52E-04
    25 OT SD       0.15E+00   16.6     0.00002086     -1527.1942496751 -2.52E-04
    26 OT SD       0.15E+00   17.1     0.00002090     -1527.1945029277 -2.53E-04
    27 OT SD       0.15E+00   16.9     0.00002093     -1527.1947570267 -2.54E-04
    28 OT SD       0.15E+00   17.2     0.00002097     -1527.1950119796 -2.55E-04
    29 OT SD       0.15E+00   16.5     0.00002100     -1527.1952677933 -2.56E-04
    30 OT SD       0.15E+00   16.3     0.00002104     -1527.1955244750 -2.57E-04
    31 OT SD       0.15E+00   16.5     0.00002107     -1527.1957820317 -2.58E-04
    32 OT SD       0.15E+00   16.5     0.00002111     -1527.1960404705 -2.58E-04
    33 OT SD       0.15E+00   21.3     0.00002115     -1527.1962997983 -2.59E-04
    34 OT SD       0.15E+00   20.1     0.00002118     -1527.1965600220 -2.60E-04
    35 OT SD       0.15E+00   16.5     0.00002122     -1527.1968211485 -2.61E-04
    36 OT SD       0.15E+00   17.1     0.00002126     -1527.1970831846 -2.62E-04
    37 OT SD       0.15E+00   17.3     0.00002129     -1527.1973461372 -2.63E-04
    38 OT SD       0.15E+00   22.8     0.00002133     -1527.1976100129 -2.64E-04
    39 OT SD       0.15E+00   16.3     0.00002137     -1527.1978748186 -2.65E-04
    40 OT SD       0.15E+00   16.8     0.00002141     -1527.1981405609 -2.66E-04
    41 OT SD       0.15E+00   16.6     0.00002145     -1527.1984072465 -2.67E-04
    42 OT SD       0.15E+00   16.7     0.00002148     -1527.1986748820 -2.68E-04
    43 OT SD       0.15E+00   17.1     0.00002152     -1527.1989434740 -2.69E-04
    44 OT SD       0.15E+00   16.2     0.00002156     -1527.1992130290 -2.70E-04
    45 OT SD       0.15E+00   17.1     0.00002160     -1527.1994835536 -2.71E-04
    46 OT SD       0.15E+00   18.2     0.00002164     -1527.1997550543 -2.72E-04
    47 OT SD       0.15E+00   16.3     0.00002168     -1527.2000275375 -2.72E-04
    48 OT SD       0.15E+00   16.7     0.00002172     -1527.2003010097 -2.73E-04
    49 OT SD       0.15E+00   16.6     0.00002176     -1527.2005754771 -2.74E-04
    50 OT SD       0.15E+00   18.4     0.00002180     -1527.2008509463 -2.75E-04

  Leaving inner SCF loop after reaching    50 steps.


  Electronic density on regular grids:      -1046.9999999719        0.0000000281
  Core density on regular grids:             1049.9999999271       -0.0000000729
  Total charge density on r-space grids:        2.9999999551
  Total charge density g-space grids:           2.9999999551

  Overlap energy of the core charge distribution:               0.00009108160821
  Self energy of the core charge distribution:              -3603.95462265793367
  Core Hamiltonian energy:                                   1131.03376465603787
  Hartree energy:                                            1410.34895067315210
  Exchange-correlation energy:                               -464.62903469916046

  Total energy:                                             -1527.20085094629576

  outer SCF iter =    6 RMS gradient =   0.22E-04 energy =      -1527.2008509463

  ----------------------------------- OT ---------------------------------------
  Minimizer      : DIIS                : direct inversion
                                         in the iterative subspace
                                         using   7 DIIS vectors
                                         safer DIIS on
  Preconditioner : FULL_KINETIC        : inversion of T + eS
  Precond_solver : DEFAULT
  stepsize       :    0.15000000                  energy_gap     :    0.20000000
  eps_taylor     :   0.10000E-15                  max_taylor     :             4
  ----------------------------------- OT ---------------------------------------

  Step     Update method      Time    Convergence         Total energy    Change
  ------------------------------------------------------------------------------
     1 OT DIIS     0.15E+00   37.1     0.00002193     -1527.2011274235 -2.76E-04
     2 OT SD       0.15E+00   18.0     0.00002196     -1527.2014072385 -2.80E-04
     3 OT SD       0.15E+00   21.4     0.00002199     -1527.2016877253 -2.80E-04
     4 OT SD       0.15E+00   22.4     0.00002202     -1527.2019689881 -2.81E-04
     5 OT SD       0.15E+00   18.4     0.00002205     -1527.2022510869 -2.82E-04
     6 OT SD       0.15E+00   16.7     0.00002209     -1527.2025340603 -2.83E-04
     7 OT SD       0.15E+00   16.6     0.00002212     -1527.2028179356 -2.84E-04
     8 OT SD       0.15E+00   17.7     0.00002216     -1527.2031027331 -2.85E-04
     9 OT SD       0.15E+00   16.8     0.00002220     -1527.2033884689 -2.86E-04
    10 OT SD       0.15E+00   16.5     0.00002223     -1527.2036751565 -2.87E-04
    11 OT SD       0.15E+00   16.7     0.00002227     -1527.2039628072 -2.88E-04
    12 OT SD       0.15E+00   17.4     0.00002231     -1527.2042514308 -2.89E-04
    13 OT SD       0.15E+00   17.6     0.00002235     -1527.2045410364 -2.90E-04
    14 OT SD       0.15E+00   17.3     0.00002239     -1527.2048316323 -2.91E-04
    15 OT SD       0.15E+00   16.8     0.00002242     -1527.2051232260 -2.92E-04
    16 OT SD       0.15E+00   16.4     0.00002246     -1527.2054158249 -2.93E-04
srun: Job step aborted: Waiting up to 32 seconds for job step to finish.
slurmstepd: error: *** STEP 11359499.2 ON node121 CANCELLED AT 2023-03-23T14:09:18 DUE TO TIME LIMIT ***
