     233
 i =        1, E =     -1111.1713117503
  C         8.3023792486        1.0702072757       -8.7933579643
  C         6.7982432891        0.5967866631       -8.7085407107
  O         6.1377992445        1.1435775331       -9.9411896999
  C         4.7846800169        0.7255747723       -9.8312882891
  C         3.8396135184        1.5282471158       -9.0612346266
  C         2.4778937910        1.0967064494       -9.2156720109
  C         2.1151160052       -0.0662166907       -9.9558395947
  C         2.9793975493       -0.9128092748      -10.7248666074
  C         4.3658046340       -0.4863442232      -10.5732327178
  O         5.3766656665       -1.3414352566      -11.0855910271
  C         5.4774311478       -0.9858036958      -12.5388375090
  C         6.5724108359       -1.9335262476      -13.1318283045
  C         0.6929775615       -0.2248720181       -9.7397334820
  N         0.0888328017       -1.2888021119      -10.3328733851
  C        -1.2276935095       -1.4332518934       -9.9680709494
  N        -1.9571768996       -0.8030777090       -8.9200930530
 Dy        -1.9758322116        1.3425568962       -7.9901481208
  N         0.1993618135        0.7186514906       -8.8209723106
  C         1.2367439965        1.6724375131       -8.6779499177
  N         1.4093789701        2.5308620385       -7.5946636290
  C         0.7940784042        2.1630000000       -6.4052058145
  C         1.7150026571        1.8652397089       -5.2847437779
  C         3.0939651245        2.2376287874       -5.1074434380
  C         3.6391223311        1.7954922683       -3.8259055528
  O         4.9112645398        2.2546200861       -3.3885095060
  C         5.9062502377        1.4606074935       -4.1863877328
  C         7.3043928688        1.9978453645       -3.7465197035
  C         2.9018093761        0.9147412185       -2.8847307656
  C         1.5026915370        0.5425699923       -3.0928794767
  C         1.0058540577        1.0491230034       -4.3427726073
  C        -0.2900406545        0.7881407620       -4.9635572588
  N        -1.1525489287       -0.0476912580       -4.3050189866
  C        -2.2148030120       -0.4481498172       -5.0774884532
  N        -2.4722030214       -0.2944980674       -6.4480756783
  C        -3.7042061458       -0.9740263969       -6.6793007924
  N        -4.0727385521       -1.6327267758       -7.8223003214
  C        -3.2123751968       -1.5074671404       -8.8880718976
  C        -3.1628042289       -2.6549874427       -9.7945679347
  C        -1.9040445723       -2.6207977124      -10.4682702077
  C        -1.3704706162       -3.6499721851      -11.3130037088
  C        -2.3168785832       -4.7497670412      -11.4687532379
  O        -1.8955030928       -5.8126099135      -12.3043837350
  C        -1.3011904733       -6.8169087017      -11.3517656964
  C        -0.9363158539       -8.0524872584      -12.2285559963
  C        -3.6271475465       -4.7980191224      -10.7644867586
  C        -4.1062801188       -3.7275936566       -9.9007755437
  O        -4.4671664987       -5.9327063624      -10.8629992823
  C        -5.2417682310       -5.7527045537      -12.1358507880
  C        -6.1912701387       -6.9884613563      -12.2259662552
  C        -4.1052888902       -1.6493425284       -5.4524069743
  C        -3.0979904681       -1.4213601970       -4.4742811853
  C        -2.9444367704       -2.1208146361       -3.2328582309
  C        -4.0069094013       -3.1028217553       -3.0574411161
  C        -5.1161081837       -3.2862494957       -4.0316794153
  C        -5.2116720374       -2.5327562197       -5.2736792568
  O        -6.0825769633       -4.3040858352       -3.8663539663
  C        -7.0731754736       -3.7735653628       -2.8738251426
  C        -8.1113566031       -4.9261173670       -2.6745294490
  O        -3.8913678437       -3.9109499526       -1.8932568869
  C        -3.2674736302       -5.1815954358       -2.4212994240
  C        -3.1264197892       -6.1576141532       -1.2108229484
  N        -0.3343769130        1.2641236677       -6.3029131457
  O         3.6472417484        0.3109293549       -1.8373648537
  C         3.2486104937        1.0661916076       -0.6020285775
  C         4.0584081160        0.4155677722        0.5680170395
  N        -3.9360336474        1.9286281587       -7.1809519150
  C        -5.1822707111        1.3813968691       -7.5572901915
  N        -5.6982858721        1.1039899670       -8.8074657780
  C        -4.7719216648        1.1743183249       -9.8129191980
  N        -3.3631739519        1.2955927538       -9.7410453795
  C        -2.9058275419        1.1308890952      -11.0812314538
  N        -1.6450857743        1.3714388609      -11.5994137335
  C        -0.8573791499        2.2664315353      -10.8812995014
  N        -1.2410181157        2.8128991851       -9.6111046311
  C        -0.5925196490        4.0508474553       -9.5423357202
  N        -0.4527009158        4.9214643012       -8.5094562911
  C        -0.9742055999        4.4729121284       -7.3246459580
  N        -1.8584542843        3.3927402935       -7.0602975468
  C        -2.1894127409        3.5497346651       -5.6730399914
  N        -3.3189274340        3.0885015365       -5.0349213050
  C        -4.0809920601        2.2390217932       -5.7935475581
  C        -5.4765849459        2.0881624273       -5.4067255841
  C        -6.1896479496        1.6192845523       -6.5457585012
  C        -7.6023035021        1.4137933975       -6.6832284178
  C        -8.2908710120        1.8379196696       -5.4759160806
  C        -7.6303639854        2.3390136021       -4.2773944616
  C        -6.1759204261        2.4256801158       -4.1889224679
  O        -5.4915305325        2.9067404734       -3.0419730408
  C        -5.3456529234        1.8623698144       -1.9683024469
  C        -4.0807694214        0.9734446368       -2.3158873617
  C        -2.7687928762        1.7551782467       -1.9600870814
  C        -6.6107245349        0.9335465194       -1.7163519540
  C        -7.7127703729        1.7101638844       -0.9116600135
  C        -1.5841556689        4.7624709470       -5.1137905084
  C        -0.8503272002        5.3471487987       -6.1823063665
  C        -0.1402989584        6.5978182139       -6.1335221471
  C        -0.1467546366        7.1699002613       -4.7835837293
  C        -0.8842653343        6.5327249438       -3.6920249774
  C        -1.6919525558        5.3173105317       -3.7978610200
  O         0.2357108919        7.1059665389       -7.4098017239
  C         1.5034985391        7.8911007551       -7.1805179230
  C         2.7107055670        6.9134583225       -7.4669848161
  C         3.0375369400        5.9675267322       -6.2573686167
  C         1.4294200294        8.9469985350       -8.3372932384
  C         0.1702347862        9.8682614425       -8.2039573604
  C        -0.0574201418        4.4618755277      -10.8204453288
  C        -0.2185709040        3.3247600169      -11.6680756670
  C         0.2064786826        3.3582974265      -13.0461303081
  C         0.8048118153        4.6264376333      -13.4469697865
  C         0.9457625044        5.7527324771      -12.5292876901
  C         0.5575381816        5.7252515220      -11.1265047105
  O         0.0473136011        2.2410548129      -13.9046978325
  C         1.2065188461        1.3287228318      -13.5645446138
  C         0.8476175181        0.0924226477      -14.4598986061
  C        -0.4668523412       -0.6142135158      -13.9880144232
  C         2.6019580067        1.9251857246      -14.0432805350
  C         3.4331129506        2.5236838139      -12.8512677793
  C        -4.0385951315        1.3301142586      -12.0071786009
  C        -5.2115261987        1.3166159553      -11.1935748174
  C        -6.5641444292        1.4255175942      -11.6898345708
  C        -6.6213471860        1.5484380848      -13.1560024172
  C        -5.4053123660        1.5706229093      -13.9690931473
  C        -4.0456555258        1.4704948388      -13.4384370259
  O        -7.5493328922        1.5033748708      -10.6727792373
  C        -8.8372500916        1.0379415494      -11.3036824187
  C        -9.2279255424       -0.2039040362      -10.4219878330
  C        -8.2236817475       -1.3961433240      -10.6078977912
  C        -9.8566310240        2.1968078326      -11.0330670536
  C        -9.4212154374        3.5057640383      -11.7824433654
  H         8.6994292115        1.2168285383       -7.6900718444
  H         8.9297247191        0.2628769017       -9.3835725583
  H         8.2834028798        2.1045640741       -9.3696641834
  H         6.7468012450       -0.5976347264       -8.7479523638
  H         6.2778254334        0.9940485148       -7.7084214200
  H         4.0960937479        2.5119511324       -8.4684291645
  H         2.5742486415       -1.8649573936      -11.2948092680
  H         4.4428685513       -1.1682641969      -13.1031488390
  H         5.8256517795        0.1504736953      -12.6429088668
  H         7.1235427474       -2.4145782756      -12.2011701178
  H         6.0451880792       -2.7692550192      -13.7732584502
  H         7.3236307057       -1.2939271029      -13.7777516584
  H         3.6285844082        2.9500257286       -5.8744137886
  H         5.8055141056        0.3122998648       -3.8735102967
  H         5.7675441146        1.5991459199       -5.3631905556
  H         7.3142384045        1.9978670754       -2.5644648552
  H         8.1336726881        1.2751250241       -4.1777274678
  H         7.4071831626        3.0941872771       -4.1704208011
  H         0.8337669486       -0.1341332961       -2.3935311750
  H        -0.3159333815       -3.5460448769      -11.8296957936
  H        -0.3013490262       -6.3579470121      -10.8870479401
  H        -2.0682359679       -7.1255507870      -10.4936662642
  H        -0.6940411014       -8.9547270439      -11.5045792853
  H        -1.8915178766       -8.2810692885      -12.8855370431
  H        -0.0093327891       -7.7640241517      -12.8982615522
  H        -5.1413387379       -3.6898268705       -9.3405484370
  H        -5.8897972175       -4.7534374470      -12.0666592072
  H        -4.5028433822       -5.7276755490      -13.0706794287
  H        -6.4408823536       -7.3036469560      -11.1130767585
  H        -7.1711434613       -6.6640553049      -12.7997648499
  H        -5.6151078251       -7.8444105868      -12.7945861124
  H        -2.0432154693       -1.9147935454       -2.5008775156
  H        -6.0694810649       -2.6153196819       -6.0747929948
  H        -6.5326946176       -3.5188978262       -1.8417318203
  H        -7.6249722695       -2.8100881311       -3.3123113255
  H        -8.2528625744       -5.1111947208       -1.5193648902
  H        -9.1194428620       -4.6263197092       -3.2051333963
  H        -7.6324940702       -5.8753216024       -3.1958589914
  H        -3.9244538577       -5.6752381910       -3.2842760375
  H        -2.1754316345       -4.9087017638       -2.8191691173
  H        -3.1675860944       -7.2603294357       -1.6356372494
  H        -2.1052893261       -5.9475921737       -0.6617405827
  H        -4.0517961866       -5.9519401492       -0.5052314140
  H         3.5793200231        2.2081001737       -0.7195593695
  H         2.0796072522        0.9870993247       -0.3760181242
  H         3.9583464964       -0.7528570464        0.4070784370
  H         5.1840984041        0.7505853050        0.4377909950
  H         3.5965339170        0.7708362224        1.6011410836
  H        -8.0553006038        0.9487968932       -7.6674631411
  H        -9.4581958695        1.7399206661       -5.4833764855
  H        -8.2353348503        2.7350985298       -3.3547025138
  H        -5.1858077752        2.5350034021       -1.0227218135
  H        -4.1371598828        0.0321043834       -1.6081335682
  H        -4.0460366025        0.6819464988       -3.4569689979
  H        -2.6472225783        1.8121188563       -0.7874421507
  H        -1.8624178418        1.1569396487       -2.4283449127
  H        -2.8244635397        2.8308819977       -2.4366449332
  H        -7.0880709208        0.5086656105       -2.7041130651
  H        -6.2181175863        0.0775161404       -1.0024093501
  H        -7.5550191150        1.5766377157        0.2500871393
  H        -7.6811516402        2.8497721996       -1.1992264434
  H        -8.7646722185        1.2483715380       -1.1859324168
  H         0.3897036202        8.1909056329       -4.5864184894
  H        -0.8788476962        7.0049260800       -2.6140675309
  H        -2.3409906045        4.7645469640       -2.9827715302
  H         1.6500862156        8.3799477536       -6.1195320670
  H         2.4474627176        6.2460970940       -8.4035692662
  H         3.6503990893        7.6018187066       -7.6632002416
  H         2.9532620556        4.8475768012       -6.6128120026
  H         4.1437103486        6.1801659051       -5.9008737270
  H         2.2815723767        6.1693301293       -5.3798867899
  H         2.3956812551        9.6130392128       -8.2440653099
  H         1.3575890267        8.3732341993       -9.3644839321
  H        -0.0635728365       10.0664090967       -7.0673699699
  H         0.4179973937       10.8917221903       -8.7410848790
  H        -0.7483578718        9.3601162240       -8.7386536314
  H         1.1414819012        4.7009551343      -14.5676148413
  H         1.4388909476        6.7478567253      -12.9092285000
  H         0.6650407424        6.5794358186      -10.3177287751
  H         1.2722934600        1.0795692388      -12.4136629480
  H         0.6929638545        0.4847891054      -15.5638701237
  H         1.7493942862       -0.6545846414      -14.3603430195
  H        -0.4996921820       -0.6466567813      -12.8114200680
  H        -1.3947991401       -0.0356861992      -14.4257086490
  H        -0.4415128034       -1.7080577129      -14.4393098151
  H         3.2246461113        1.0312236370      -14.5051906041
  H         2.4116513892        2.7831028268      -14.8288453938
  H         3.9173461690        1.6625126660      -12.2104968187
  H         4.2946203724        3.1866915244      -13.3249365902
  H         2.7438205143        3.2193854140      -12.1972124491
  H        -7.6532838894        1.6911412753      -13.6860428803
  H        -5.4739436961        1.6696703761      -15.1420335051
  H        -3.0239377037        1.4686615330      -14.0295053411
  H        -8.7894315956        0.7225233717      -12.4359927705
  H        -9.2242427354        0.1214325858       -9.2904888682
  H       -10.2920726104       -0.5532030877      -10.7921827624
  H        -7.9104915399       -1.7904030402       -9.5401656468
  H        -8.7598624396       -2.2734605024      -11.1856490545
  H        -7.2682125226       -1.0261738180      -11.1856090346
  H       -10.8875570780        1.8310338059      -11.4651127556
  H        -9.8683765583        2.4081260475       -9.8752762991
  H        -9.1870863263        4.3393886344      -10.9800686717
  H        -8.4716500381        3.3266724001      -12.4518581385
  H       -10.3299718079        3.8801765146      -12.4360622614
     233
 i =        2, E =     -1111.5245282241
  C         8.3780671334        1.0809881288       -8.7969708859
  C         6.8684674540        0.5956789336       -8.7009807291
  O         6.1909634272        1.1598854858       -9.9610125664
  C         4.7901539769        0.7722515058       -9.8940053243
  C         3.8800725155        1.5889446753       -9.0536439908
  C         2.4963015596        1.2069007219       -9.3015505345
  C         2.1355090094       -0.0064455371      -10.0176028147
  C         2.9908923985       -0.9094815342      -10.7612536165
  C         4.4052167685       -0.5389508978      -10.5380308615
  O         5.4737445923       -1.3681288980      -11.0821257299
  C         5.5125484300       -1.0018558883      -12.5802247459
  C         6.6150033398       -1.9684199345      -13.1736625027
  C         0.6935467374       -0.2344901360       -9.7521260171
  N         0.1228386891       -1.3244787712      -10.4523757853
  C        -1.2106911938       -1.4589498279       -9.9762862912
  N        -1.9581330146       -0.7924529600       -8.9385083514
 Dy        -1.7505545083        1.2260713826       -8.0560918907
  N         0.1639207112        0.7673310583       -8.8552855490
  C         1.2444857414        1.6838114781       -8.6322288573
  N         1.4828183209        2.6385662400       -7.5953501394
  C         0.8152924429        2.1337468855       -6.4401612259
  C         1.7179962313        1.9982959992       -5.2432191465
  C         3.1475503006        2.2861505243       -5.1298453223
  C         3.6354499826        1.8564542473       -3.7922992295
  O         4.9561572879        2.2642091334       -3.3218433482
  C         5.9576937781        1.4632453026       -4.1821324902
  C         7.3666522262        2.0157175423       -3.7441400956
  C         2.9381236366        0.8452708752       -2.9028904518
  C         1.4918014296        0.5498353832       -3.0554373895
  C         1.0080038930        1.1377920735       -4.2990132398
  C        -0.2806184078        0.7766253967       -4.9588813319
  N        -1.1251477556       -0.0740499126       -4.1972542768
  C        -2.2062397964       -0.4378410712       -5.0461264440
  N        -2.4752919019       -0.2427089350       -6.4486761914
  C        -3.7032457902       -0.9870380839       -6.6779560424
  N        -4.2731292780       -1.5218075937       -7.8843697045
  C        -3.2235125243       -1.5193968405       -8.8761575230
  C        -3.2510748216       -2.6283308777       -9.8758719390
  C        -1.9523718772       -2.6202768911      -10.5316380656
  C        -1.3693120891       -3.6480169832      -11.3723083432
  C        -2.3380194586       -4.7477412163      -11.5668365536
  O        -1.8998230630       -5.8698966214      -12.3820104989
  C        -1.2865515151       -6.8635359135      -11.3619998647
  C        -0.9201272760       -8.1099197633      -12.2518120058
  C        -3.6031071704       -4.8693441306      -10.7073394109
  C        -4.1630524226       -3.7568655976       -9.8982959957
  O        -4.4717955121       -6.0200138064      -10.8617984348
  C        -5.2677940255       -5.7836361052      -12.1635494433
  C        -6.2279202344       -7.0344263356      -12.2486566165
  C        -4.2134739658       -1.5845160063       -5.4130148005
  C        -3.1741259809       -1.3751522914       -4.4250141632
  C        -2.9786723830       -2.0802385425       -3.1748036065
  C        -4.0584663273       -3.0614377606       -2.9693942012
  C        -5.0937999957       -3.3766526806       -4.0553103616
  C        -5.2800758946       -2.5525347818       -5.2776574140
  O        -6.0805924704       -4.4096738877       -3.8166484629
  C        -7.1140867202       -3.7952633037       -2.8492409825
  C        -8.1633758034       -4.9639330587       -2.6529280942
  O        -3.9211932460       -3.9509830727       -1.8185517428
  C        -3.2561396223       -5.2280347694       -2.3976739919
  C        -3.1217614644       -6.2066456535       -1.1675547385
  N        -0.3853631486        1.3465796473       -6.2865979161
  O         3.7210255654        0.3139293991       -1.7988857187
  C         3.2645811975        1.0677570447       -0.5322447028
  C         4.0715582847        0.4017732350        0.6563045912
  N        -3.9618514672        1.9286831047       -7.1898110236
  C        -5.2400276688        1.3761321928       -7.5789196805
  N        -5.8000068882        1.0565833032       -8.8420611255
  C        -4.7817481727        1.1726977079       -9.8262714982
  N        -3.3337387109        1.2050182297       -9.7382374877
  C        -2.8579621244        1.1270882676      -11.0969307413
  N        -1.5790287558        1.3130075101      -11.7040069275
  C        -0.8842635289        2.2691789896      -10.9128086954
  N        -1.2153634112        2.7663404276       -9.5935108298
  C        -0.6349109583        4.0790499079       -9.5505442440
  N        -0.3664750711        4.9816623457       -8.4950079767
  C        -1.0119591653        4.5096893306       -7.3246435459
  N        -1.8537336299        3.3665853036       -7.0566188061
  C        -2.2298258939        3.5536587104       -5.6640687659
  N        -3.2710319321        2.9603685318       -4.8660613083
  C        -4.1267692302        2.2507410160       -5.7698894118
  C        -5.5270374708        2.0116131468       -5.3280564174
  C        -6.2332260300        1.4999660279       -6.4843743629
  C        -7.6754174221        1.3901220362       -6.6503556369
  C        -8.4056411026        1.8286173100       -5.4402469589
  C        -7.6969558088        2.3202518191       -4.2265001632
  C        -6.2192399664        2.4446842748       -4.1160413230
  O        -5.4754170794        3.0144329034       -2.9938369618
  C        -5.3385618606        1.8612598393       -1.9645238211
  C        -4.0588699993        0.9854237862       -2.3096523513
  C        -2.7290989858        1.7656980712       -1.9727027309
  C        -6.6183180709        0.9605040281       -1.7066519440
  C        -7.7467510178        1.7324319510       -0.9165990826
  C        -1.5435179558        4.7226504170       -5.0395388153
  C        -0.8137160371        5.3301702514       -6.1178120251
  C        -0.1833172887        6.6332577023       -6.0906789539
  C        -0.0965678913        7.2300554011       -4.7241099690
  C        -0.8645983230        6.5899971650       -3.6164132445
  C        -1.6800029947        5.3463825200       -3.7364469147
  O         0.2683316311        7.1503133723       -7.3597654368
  C         1.5708451007        7.9396258909       -7.2650746714
  C         2.7401053592        6.8914551447       -7.4595525471
  C         3.0347655220        5.9368788276       -6.2276721903
  C         1.4514652217        9.0257936191       -8.3752429270
  C         0.1402105790        9.8927733677       -8.2032816427
  C         0.0121694774        4.4544985963      -10.8364032479
  C        -0.0653403837        3.2626646012      -11.6700053213
  C         0.2045116536        3.4098605099      -13.1094140886
  C         0.8398960603        4.6824570656      -13.5103381610
  C         1.0160845092        5.8299011176      -12.5818159581
  C         0.5814211768        5.7511956933      -11.1686625727
  O         0.0470778155        2.2404820239      -13.9612077575
  C         1.2039038762        1.2749437119      -13.6027395318
  C         0.8614049033        0.0131283652      -14.4627375056
  C        -0.4917642702       -0.6374670721      -13.9710790789
  C         2.6010545293        1.9203996006      -14.0360396155
  C         3.4372056117        2.5253390396      -12.8313436403
  C        -4.0017491141        1.2107791333      -12.0650612947
  C        -5.1928158807        1.2752123536      -11.2447772933
  C        -6.5508757559        1.4736740039      -11.7267630689
  C        -6.6798476110        1.5424581004      -13.2176319985
  C        -5.4338275314        1.5773066362      -14.0323055697
  C        -4.0428420333        1.4533931544      -13.5020119945
  O        -7.5724422181        1.4780158069      -10.7108438442
  C        -8.9353025103        1.0236752536      -11.2388753082
  C        -9.2690723316       -0.2634831934      -10.4029889821
  C        -8.1976442332       -1.4169395521      -10.6149021595
  C        -9.9114361483        2.2272649679      -11.0489860695
  C        -9.4195196187        3.5380943362      -11.7999892788
  H         8.7448676364        1.2234714133       -7.6394459166
  H         9.0063497488        0.2394667557       -9.4253680901
  H         8.3201647722        2.1528351772       -9.3940185498
  H         6.7092797710       -0.6385618087       -8.7228560711
  H         6.2383096021        0.9897529697       -7.7033455742
  H         4.1297211328        2.5964516195       -8.4268358306
  H         2.5599667710       -1.9174198919      -11.3068870978
  H         4.3891907124       -1.1275658339      -13.0937542845
  H         5.7903975576        0.2063675094      -12.6359030527
  H         7.1621077173       -2.4440922570      -12.1827407375
  H         6.0462193403       -2.8322659489      -13.8159166732
  H         7.3766936868       -1.2790181790      -13.8277014181
  H         3.6815715682        3.0218184181       -5.9286730555
  H         5.7746686358        0.2703810963       -3.8940052372
  H         5.7203998717        1.5801883869       -5.3944047656
  H         7.3358078861        2.0029596680       -2.5191519832
  H         8.1942711871        1.2419976617       -4.1983986491
  H         7.4421887567        3.1556668605       -4.1754621941
  H         0.8035016743       -0.1858940591       -2.3629297453
  H        -0.2497931242       -3.5476757851      -11.8537132511
  H        -0.2979604109       -6.3249000790      -10.8378045596
  H        -2.0982764714       -7.0975400090      -10.4575358738
  H        -0.6722553434       -9.0193750153      -11.4763778581
  H        -1.9202906777       -8.3217329326      -12.9244254926
  H         0.0297237590       -7.7759856235      -12.9436527303
  H        -5.2164281206       -3.7049725253       -9.2882754130
  H        -5.8705820361       -4.7044879974      -12.0654996432
  H        -4.4677896023       -5.6800922287      -13.1033935520
  H        -6.4690287908       -7.3289831585      -11.0814710726
  H        -7.2321591440       -6.6705979859      -12.8379882957
  H        -5.6133463082       -7.9183078302      -12.8178599603
  H        -1.9921111200       -1.9115742400       -2.4646454240
  H        -6.1346930970       -2.6527059277       -6.1401836184
  H        -6.4864546272       -3.4797502727       -1.8276415562
  H        -7.5992872219       -2.7509428975       -3.3137446988
  H        -8.2887285713       -5.1430879999       -1.4557979485
  H        -9.1891518746       -4.6406218585       -3.2237201698
  H        -7.6407267690       -5.9299267825       -3.2015620352
  H        -3.9502833031       -5.6475862378       -3.3347296717
  H        -2.1637753081       -4.8894148895       -2.8844354988
  H        -3.1628804448       -7.3328355947       -1.6373962632
  H        -2.0649893554       -5.9517652457       -0.6134077613
  H        -4.0898991435       -5.9700125980       -0.4560014606
  H         3.5490940060        2.2569149663       -0.7384273250
  H         2.0327680877        1.0014410280       -0.4096138806
  H         3.9626704232       -0.8038637649        0.4351862557
  H         5.2326497189        0.7503930948        0.4612849118
  H         3.5665442506        0.8017502026        1.7096558780
  H        -8.0675462196        0.9470159199       -7.7307926157
  H        -9.6085657790        1.7489740571       -5.4613288870
  H        -8.3001325317        2.7390284060       -3.2696329866
  H        -5.1389185259        2.5080197295       -0.9410737659
  H        -4.1504281123       -0.0389974321       -1.6481027527
  H        -4.0873867445        0.6375936691       -3.4785769000
  H        -2.6429634294        1.8301401102       -0.7556217672
  H        -1.8020705859        1.1443586837       -2.4615194316
  H        -2.8251307136        2.8729947547       -2.4697362836
  H        -7.0473821315        0.4728724183       -2.7401812905
  H        -6.2017994987        0.0205140730       -1.0428029900
  H        -7.5478522497        1.5941752152        0.2788765098
  H        -7.6931201072        2.9111482324       -1.2064933315
  H        -8.8287893413        1.2446742410       -1.1857826153
  H         0.4355442288        8.2957439524       -4.5425666150
  H        -0.8559277843        7.1021176654       -2.5210608362
  H        -2.3708828485        4.7485746267       -2.9239540800
  H         1.6023550551        8.3768005672       -6.1191044782
  H         2.4436106418        6.2714467552       -8.4696175920
  H         3.6721487209        7.6353893762       -7.7241787151
  H         2.9308891008        4.7836770754       -6.5986081671
  H         4.1748557033        6.1778306861       -5.8630694942
  H         2.2478427672        6.1505794317       -5.3250754541
  H         2.4942644686        9.6400580308       -8.2809163199
  H         1.4176366812        8.3506446257       -9.3931219008
  H        -0.0849030866       10.0838587065       -7.0205358117
  H         0.4106800862       10.9414710218       -8.7617774153
  H        -0.8062603823        9.3446806041       -8.7408270399
  H         1.1837229740        4.7301910049      -14.6656888613
  H         1.5024946283        6.8577534624      -12.9867221216
  H         0.6551800606        6.6022156813      -10.2857075021
  H         1.2387218047        1.0744521382      -12.3899144831
  H         0.7531869710        0.4836193095      -15.5900091646
  H         1.8320146040       -0.7095148557      -14.3982074273
  H        -0.5208507494       -0.6518765529      -12.7527619543
  H        -1.4415227708       -0.0135707097      -14.4098930709
  H        -0.4702115057       -1.7588971343      -14.4487493491
  H         3.2244015019        1.0263302778      -14.6179063351
  H         2.4020661891        2.7751263455      -14.8832650814
  H         3.9150745649        1.6337052902      -12.1539460584
  H         4.3291631834        3.2065756139      -13.3172093698
  H         2.7160717619        3.2461282588      -12.1642541998
  H        -7.7444324129        1.7115597993      -13.7517079326
  H        -5.5256868691        1.6903232327      -15.2345526540
  H        -2.9619978253        1.4669545530      -14.0724835972
  H        -8.7478212546        0.7351637358      -12.4175870530
  H        -9.2762084281        0.1673387999       -9.2633069388
  H       -10.4014972567       -0.5402449639      -10.7600564161
  H        -7.8803423328       -1.8186282465       -9.5092315193
  H        -8.7576765517       -2.3144629289      -11.2189630708