 DBCSR| Multiplication driver                                               XSMM
 DBCSR| Multrec recursion limit                                              512
 DBCSR| Multiplication stack size                                           1000
 DBCSR| Maximum elements for images                                    UNLIMITED
 DBCSR| Multiplicative factor virtual images                                   1
 DBCSR| Randmat seed                                                    12341313
 DBCSR| Multiplication size stacks                                             3
 DBCSR| Number of 3D layers                                               SINGLE
 DBCSR| Use MPI memory allocation                                              T
 DBCSR| Use RMA algorithm                                                      F
 DBCSR| Use Communication thread                                               T
 DBCSR| Communication thread load                                             87


  **** **** ******  **  PROGRAM STARTED AT               2023-03-25 18:59:14.377
 ***** ** ***  *** **   PROGRAM STARTED ON        node132.pri.kelvin2.alces.netw
 **    ****   ******    PROGRAM STARTED BY                              40265864
 ***** **    ** ** **   PROGRAM PROCESS ID                                125545
  **** **  *******  **  PROGRAM STARTED IN /mnt/scratch2/users/40265864/MSc_ML_M
                                           M/ln_replacements/xyz/Dy_L9_L2/geomet
                                           ry_optimisation/run-0

 CP2K| version string:                                          CP2K version 4.1
 CP2K| source code revision number:                                    svn:17462
 CP2K| cp2kflags: libint fftw3 libxc parallel mpi3 scalapack libxsmm libderiv_ma
 CP2K|            x_am1=5 libint_max_am=6
 CP2K| is freely available from                            https://www.cp2k.org/
 CP2K| Program compiled at                          Mon 24 Oct 18:14:20 BST 2022
 CP2K| Program compiled on                      login1.pri.kelvin2.alces.network
 CP2K| Program compiled for                                                local
 CP2K| Data directory path                      /users/40265864/source/cp2k/data
 CP2K| Input file name                                         geo-opt-relax.inp

 GLOBAL| Force Environment number                                              1
 GLOBAL| Basis set file name                                 ../BASIS_MOLOPT_UCL
 GLOBAL| Potential file name                                        ../POTENTIAL
 GLOBAL| MM Potential file name                                     MM_POTENTIAL
 GLOBAL| Coordinate file name                                 ../../Dy_L9_L2.xyz
 GLOBAL| Method name                                                        CP2K
 GLOBAL| Project name                                              molecule_name
 GLOBAL| Preferred FFT library                                             FFTW3
 GLOBAL| Preferred diagonalization lib.                                       SL
 GLOBAL| Run type                                                        GEO_OPT
 GLOBAL| All-to-all communication in single precision                          F
 GLOBAL| FFTs using library dependent lengths                                  F
 GLOBAL| Global print level                                                  LOW
 GLOBAL| Total number of message passing processes                           121
 GLOBAL| Number of threads for this process                                    1
 GLOBAL| This output is from process                                           0
 GLOBAL| CPU model name :  AMD EPYC 7702 64-Core Processor

 MEMORY| system memory details [Kb]
 MEMORY|                        rank 0           min           max       average
 MEMORY| MemTotal            792056776     792056776     792056776     792056776
 MEMORY| MemFree             762169820     762169820     762169820     762169820
 MEMORY| Buffers                231672        231672        231672        231672
 MEMORY| Cached               12934092      12934092      12934092      12934092
 MEMORY| Slab                  2652328       2652328       2652328       2652328
 MEMORY| SReclaimable          1068640       1068640       1068640       1068640
 MEMORY| MemLikelyFree       776404224     776404224     776404224     776404224


 GENERATE|  Preliminary Number of Bonds generated:                             0
 GENERATE|  Achieved consistency in connectivity generation.

 *******************************************************************************
 *******************************************************************************
 **                                                                           **
 **     #####                         ##              ##                      **
 **    ##   ##            ##          ##              ##                      **
 **   ##     ##                       ##            ######                    **
 **   ##     ##  ##   ##  ##   #####  ##  ##   ####   ##    #####    #####    **
 **   ##     ##  ##   ##  ##  ##      ## ##   ##      ##   ##   ##  ##   ##   **
 **   ##  ## ##  ##   ##  ##  ##      ####     ###    ##   ######   ######    **
 **    ##  ###   ##   ##  ##  ##      ## ##      ##   ##   ##       ##        **
 **     #######   #####   ##   #####  ##  ##  ####    ##    #####   ##        **
 **           ##                                                    ##        **
 **                                                                           **
 **                                                ... make the atoms dance   **
 **                                                                           **
 **            Copyright (C) by CP2K developers group (2000 - 2016)           **
 **                                                                           **
 *******************************************************************************


 SCF PARAMETERS         Density guess:                                   RESTART
                        --------------------------------------------------------
                        max_scf:                                              50
                        max_scf_history:                                       0
                        max_diis:                                              4
                        --------------------------------------------------------
                        eps_scf:                                        5.00E-05
                        eps_scf_history:                                0.00E+00
                        eps_diis:                                       1.00E-01
                        eps_eigval:                                     1.00E-05
                        --------------------------------------------------------
                        level_shift [a.u.]:                                 0.00
                        --------------------------------------------------------
                        Outer loop SCF in use 
                        No variables optimised in outer loop
                        eps_scf                                         5.00E-05
                        max_scf                                               20
                        No outer loop optimization
                        step_size                                       5.00E-01

 *******************************************************************************
 ***                     STARTING GEOMETRY OPTIMIZATION                      ***
 ***                                   BFGS                                  ***
 *******************************************************************************

 Spin 1

 Number of electrons:                                                        337
 Number of occupied orbitals:                                                337
 Number of molecular orbitals:                                               337

 Spin 2

 Number of electrons:                                                        336
 Number of occupied orbitals:                                                336
 Number of molecular orbitals:                                               336

 Number of orbital functions:                                                633
 Number of independent orbital functions:                                    633

 Extrapolation method: initial_guess

 *** WARNING in qs_initial_guess.F:262 :: User requested to restart the    ***
 *** wavefunction from the file named: molecule_name-RESTART.wfn. This     ***
 *** file does not exist. Please check the existence of the file or change ***
 *** properly the value of the keyword WFN_RESTART_FILE_NAME. Calculation  ***
 *** continues using ATOMIC GUESS.                                         ***



 SCF WAVEFUNCTION OPTIMIZATION

  ----------------------------------- OT ---------------------------------------
  Minimizer      : DIIS                : direct inversion
                                         in the iterative subspace
                                         using   7 DIIS vectors
                                         safer DIIS on
  Preconditioner : FULL_KINETIC        : inversion of T + eS
  Precond_solver : DEFAULT
  stepsize       :    0.15000000                  energy_gap     :    0.20000000
  eps_taylor     :   0.10000E-15                  max_taylor     :             4
  ----------------------------------- OT ---------------------------------------

  Step     Update method      Time    Convergence         Total energy    Change
  ------------------------------------------------------------------------------
     1 OT DIIS     0.15E+00    2.2     0.01059918     -1063.1776999920 -1.06E+03
     2 OT DIIS     0.15E+00    2.5     0.00952034     -1069.9938214051 -6.82E+00
     3 OT DIIS     0.15E+00    1.9     0.00722853     -1082.4997862344 -1.25E+01
     4 OT DIIS     0.15E+00    1.9     0.00627055     -1083.1165216714 -6.17E-01
     5 OT DIIS     0.15E+00    1.9     0.00472003     -1091.9477180322 -8.83E+00
     6 OT DIIS     0.15E+00    1.9     0.00391671     -1096.5412099470 -4.59E+00
     7 OT DIIS     0.15E+00    1.9     0.00324530     -1101.7540888663 -5.21E+00
     8 OT DIIS     0.15E+00    1.8     0.00300027     -1102.7362820966 -9.82E-01
     9 OT DIIS     0.15E+00    1.8     0.00222097     -1104.6566964905 -1.92E+00
    10 OT DIIS     0.15E+00    1.9     0.00166273     -1105.1064173113 -4.50E-01
    11 OT DIIS     0.15E+00    1.9     0.00127028     -1106.0154448777 -9.09E-01
    12 OT DIIS     0.15E+00    1.9     0.00109179     -1106.5259865281 -5.11E-01
    13 OT DIIS     0.15E+00    2.0     0.00086335     -1106.9463250446 -4.20E-01
    14 OT DIIS     0.15E+00    1.9     0.00080830     -1107.1396560654 -1.93E-01
    15 OT DIIS     0.15E+00    1.9     0.00073753     -1107.2862833521 -1.47E-01
    16 OT DIIS     0.15E+00    1.9     0.00065629     -1107.4604861839 -1.74E-01
    17 OT DIIS     0.15E+00    1.9     0.00057841     -1107.6373795420 -1.77E-01
    18 OT DIIS     0.15E+00    2.6     0.00046368     -1107.8033856716 -1.66E-01
    19 OT DIIS     0.15E+00    1.9     0.00044109     -1107.8422109392 -3.88E-02
    20 OT DIIS     0.15E+00    1.9     0.00041819     -1107.8910507557 -4.88E-02
    21 OT DIIS     0.15E+00    9.5     0.00036179     -1108.0279370062 -1.37E-01
    22 OT DIIS     0.15E+00    9.4     0.00034674     -1108.0463902729 -1.85E-02
    23 OT DIIS     0.15E+00    3.8     0.00032919     -1108.0820574968 -3.57E-02
    24 OT DIIS     0.15E+00    1.9     0.00028258     -1108.1826730889 -1.01E-01
    25 OT DIIS     0.15E+00    1.9     0.00027150     -1108.2204918494 -3.78E-02
    26 OT DIIS     0.15E+00    1.9     0.00026623     -1108.2284821542 -7.99E-03
    27 OT DIIS     0.15E+00    1.9     0.00024049     -1108.3026465688 -7.42E-02
    28 OT DIIS     0.15E+00    1.9     0.00023788     -1108.3070969960 -4.45E-03
    29 OT DIIS     0.15E+00    1.9     0.00023119     -1108.3261499658 -1.91E-02
    30 OT DIIS     0.15E+00    1.9     0.00021219     -1108.3768606029 -5.07E-02
    31 OT DIIS     0.15E+00    3.8     0.00020810     -1108.3919522460 -1.51E-02
    32 OT DIIS     0.15E+00    1.9     0.00020061     -1108.4184004129 -2.64E-02
    33 OT DIIS     0.15E+00    1.9     0.00019587     -1108.4390055821 -2.06E-02
    34 OT DIIS     0.15E+00    1.9     0.00019469     -1108.4466971625 -7.69E-03
    35 OT DIIS     0.15E+00    1.9     0.00019258     -1108.4548224094 -8.13E-03
    36 OT DIIS     0.15E+00    1.9     0.00018965     -1108.4713874691 -1.66E-02
    37 OT DIIS     0.15E+00    1.9     0.00018801     -1108.4790781539 -7.69E-03
    38 OT DIIS     0.15E+00    1.9     0.00017781     -1108.5246382272 -4.56E-02
    39 OT SD       0.15E+00    1.8     0.00018020     -1108.5591480573 -3.45E-02
    40 OT SD       0.15E+00    1.9     0.00017729     -1108.5612040351 -2.06E-03
    41 OT DIIS     0.15E+00    1.8     0.00017557     -1108.5632016859 -2.00E-03
    42 OT SD       0.15E+00    1.9     0.00017099     -1108.5859359831 -2.27E-02
    43 OT DIIS     0.15E+00    1.9     0.00017047     -1108.5878012294 -1.87E-03
    44 OT SD       0.15E+00    1.9     0.00016897     -1108.5996134176 -1.18E-02
    45 OT DIIS     0.15E+00    1.9     0.00016869     -1108.6014362805 -1.82E-03
    46 OT DIIS     0.15E+00    1.9     0.00016682     -1108.6242947401 -2.29E-02
    47 OT SD       0.15E+00    1.9     0.00016692     -1108.6283342517 -4.04E-03
    48 OT DIIS     0.15E+00    1.9     0.00016664     -1108.6301131435 -1.78E-03
    49 OT SD       0.15E+00    1.9     0.00016719     -1108.6376725812 -7.56E-03
    50 OT DIIS     0.15E+00    1.9     0.00016631     -1108.6394535178 -1.78E-03

  Leaving inner SCF loop after reaching    50 steps.


  Electronic density on regular grids:       -672.9999999863        0.0000000137
  Core density on regular grids:              675.9999999541       -0.0000000459
  Total charge density on r-space grids:        2.9999999679
  Total charge density g-space grids:           2.9999999679

  Overlap energy of the core charge distribution:               0.00005333249695
  Self energy of the core charge distribution:              -2597.23657311820534
  Core Hamiltonian energy:                                    759.25352892089711
  Hartree energy:                                            1024.83087590012678
  Exchange-correlation energy:                               -295.48733855309661

  Total energy:                                             -1108.63945351778102

  outer SCF iter =    1 RMS gradient =   0.17E-03 energy =      -1108.6394535178

  ----------------------------------- OT ---------------------------------------
  Minimizer      : DIIS                : direct inversion
                                         in the iterative subspace
                                         using   7 DIIS vectors
                                         safer DIIS on
  Preconditioner : FULL_KINETIC        : inversion of T + eS
  Precond_solver : DEFAULT
  stepsize       :    0.15000000                  energy_gap     :    0.20000000
  eps_taylor     :   0.10000E-15                  max_taylor     :             4
  ----------------------------------- OT ---------------------------------------

  Step     Update method      Time    Convergence         Total energy    Change
  ------------------------------------------------------------------------------
     1 OT DIIS     0.15E+00    3.7     0.00019625     -1108.6468969832 -7.44E-03
     2 OT DIIS     0.15E+00    1.8     0.00018972     -1108.6493159083 -2.42E-03
     3 OT DIIS     0.15E+00    1.8     0.00014795     -1108.6710353851 -2.17E-02
     4 OT DIIS     0.15E+00    1.8     0.00013639     -1108.6816923613 -1.07E-02
     5 OT DIIS     0.15E+00    1.9     0.00012859     -1108.6914944496 -9.80E-03
     6 OT DIIS     0.15E+00    1.9     0.00012172     -1108.7040864873 -1.26E-02
     7 OT DIIS     0.15E+00    1.9     0.00011259     -1108.7232103990 -1.91E-02
     8 OT DIIS     0.15E+00    1.9     0.00011152     -1108.7265912720 -3.38E-03
     9 OT DIIS     0.15E+00    1.9     0.00010500     -1108.7457759203 -1.92E-02
    10 OT DIIS     0.15E+00    1.9     0.00010373     -1108.7497040210 -3.93E-03
    11 OT DIIS     0.15E+00    1.8     0.00010062     -1108.7620413145 -1.23E-02
    12 OT DIIS     0.15E+00    1.8     0.00009990     -1108.7657073008 -3.67E-03
    13 OT DIIS     0.15E+00    1.8     0.00009864     -1108.7737248787 -8.02E-03
    14 OT DIIS     0.15E+00    1.9     0.00009816     -1108.7758981975 -2.17E-03
    15 OT DIIS     0.15E+00    1.9     0.00009591     -1108.7887996695 -1.29E-02
    16 OT DIIS     0.15E+00    1.9     0.00009032     -1108.8161092508 -2.73E-02
    17 OT DIIS     0.15E+00    1.8     0.00008983     -1108.8183458643 -2.24E-03
    18 OT DIIS     0.15E+00    1.9     0.00008823     -1108.8234886432 -5.14E-03
    19 OT SD       0.15E+00    1.9     0.00008051     -1108.8463755310 -2.29E-02
    20 OT DIIS     0.15E+00    1.9     0.00007891     -1108.8467851626 -4.10E-04
    21 OT SD       0.15E+00    1.9     0.00006576     -1108.8679631598 -2.12E-02
    22 OT DIIS     0.15E+00    1.9     0.00006466     -1108.8682370412 -2.74E-04
    23 OT DIIS     0.15E+00    1.8     0.00006119     -1108.8732999300 -5.06E-03
    24 OT DIIS     0.15E+00    1.8     0.00006106     -1108.8733951265 -9.52E-05
    25 OT SD       0.15E+00    1.9     0.00005824     -1108.8765392291 -3.14E-03
    26 OT DIIS     0.15E+00    1.9     0.00005775     -1108.8767549744 -2.16E-04
    27 OT DIIS     0.15E+00    1.9     0.00005577     -1108.8796571946 -2.90E-03
    28 OT SD       0.15E+00    1.9     0.00005521     -1108.8821119418 -2.45E-03
    29 OT DIIS     0.15E+00    1.8     0.00005510     -1108.8823065116 -1.95E-04
    30 OT DIIS     0.15E+00    1.8     0.00005470     -1108.8839840468 -1.68E-03
    31 OT DIIS     0.15E+00    1.8     0.00005449     -1108.8862892250 -2.31E-03
    32 OT DIIS     0.15E+00    1.9     0.00005448     -1108.8864537609 -1.65E-04
    33 OT SD       0.15E+00    1.9     0.00005448     -1108.8870506967 -5.97E-04
    34 OT SD       0.15E+00    1.9     0.00005448     -1108.8872403887 -1.90E-04
    35 OT SD       0.15E+00    1.8     0.00005449     -1108.8874300898 -1.90E-04
    36 OT SD       0.15E+00    1.8     0.00005449     -1108.8876198185 -1.90E-04
    37 OT SD       0.15E+00    1.9     0.00005450     -1108.8878095899 -1.90E-04
    38 OT DIIS     0.15E+00    1.9     0.00005451     -1108.8879994173 -1.90E-04
    39 OT SD       0.15E+00    1.8     0.00005496     -1108.8900791182 -2.08E-03
    40 OT SD       0.15E+00    1.9     0.00005496     -1108.8902721125 -1.93E-04
    41 OT SD       0.15E+00    1.9     0.00005497     -1108.8904651613 -1.93E-04
    42 OT SD       0.15E+00    1.9     0.00005499     -1108.8906583037 -1.93E-04
    43 OT SD       0.15E+00    1.9     0.00005501     -1108.8908515640 -1.93E-04
    44 OT SD       0.15E+00    1.9     0.00005503     -1108.8910449585 -1.93E-04
    45 OT SD       0.15E+00    1.9     0.00005505     -1108.8912384994 -1.94E-04
    46 OT SD       0.15E+00    1.9     0.00005507     -1108.8914321964 -1.94E-04
    47 OT SD       0.15E+00    1.9     0.00005510     -1108.8916260579 -1.94E-04
    48 OT SD       0.15E+00    1.9     0.00005512     -1108.8918200908 -1.94E-04
    49 OT SD       0.15E+00    1.9     0.00005515     -1108.8920143019 -1.94E-04
    50 OT SD       0.15E+00    1.9     0.00005518     -1108.8922086968 -1.94E-04

  Leaving inner SCF loop after reaching    50 steps.


  Electronic density on regular grids:       -672.9999999938        0.0000000062
  Core density on regular grids:              675.9999999541       -0.0000000459
  Total charge density on r-space grids:        2.9999999603
  Total charge density g-space grids:           2.9999999603

  Overlap energy of the core charge distribution:               0.00005333249695
  Self energy of the core charge distribution:              -2597.23657311820534
  Core Hamiltonian energy:                                    759.35844914802226
  Hartree energy:                                            1024.68029782971007
  Exchange-correlation energy:                               -295.69443588879687

  Total energy:                                             -1108.89220869677274

  outer SCF iter =    2 RMS gradient =   0.55E-04 energy =      -1108.8922086968

  ----------------------------------- OT ---------------------------------------
  Minimizer      : DIIS                : direct inversion
                                         in the iterative subspace
                                         using   7 DIIS vectors
                                         safer DIIS on
  Preconditioner : FULL_KINETIC        : inversion of T + eS
  Precond_solver : DEFAULT
  stepsize       :    0.15000000                  energy_gap     :    0.20000000
  eps_taylor     :   0.10000E-15                  max_taylor     :             4
  ----------------------------------- OT ---------------------------------------

  Step     Update method      Time    Convergence         Total energy    Change
  ------------------------------------------------------------------------------
     1 OT DIIS     0.15E+00    3.7     0.00006499     -1108.8924032811 -1.95E-04
     2 OT DIIS     0.15E+00    1.8     0.00006466     -1108.8926724851 -2.69E-04
     3 OT DIIS     0.15E+00    1.8     0.00006332     -1108.8950296290 -2.36E-03
     4 OT DIIS     0.15E+00    1.8     0.00006296     -1108.8968029528 -1.77E-03
     5 OT SD       0.15E+00    1.8     0.00006508     -1108.9024631304 -5.66E-03
     6 OT SD       0.15E+00    1.8     0.00006437     -1108.9027321800 -2.69E-04
     7 OT SD       0.15E+00    1.8     0.00006390     -1108.9029958896 -2.64E-04
     8 OT SD       0.15E+00    1.8     0.00006358     -1108.9032560775 -2.60E-04
     9 OT SD       0.15E+00    1.8     0.00006338     -1108.9035139534 -2.58E-04
    10 OT SD       0.15E+00    1.8     0.00006324     -1108.9037703244 -2.56E-04
    11 OT SD       0.15E+00    7.7     0.00006316     -1108.9040257352 -2.55E-04
    12 OT SD       0.15E+00    9.7     0.00006311     -1108.9042805531 -2.55E-04
    13 OT SD       0.15E+00    9.8     0.00006309     -1108.9045350282 -2.54E-04
    14 OT SD       0.15E+00    9.8     0.00006308     -1108.9047893318 -2.54E-04
    15 OT SD       0.15E+00    9.8     0.00006308     -1108.9050435812 -2.54E-04
    16 OT SD       0.15E+00    9.8     0.00006309     -1108.9052978575 -2.54E-04
    17 OT SD       0.15E+00    9.9     0.00006310     -1108.9055522170 -2.54E-04
    18 OT SD       0.15E+00   10.4     0.00006312     -1108.9058066981 -2.54E-04
    19 OT SD       0.15E+00   10.4     0.00006314     -1108.9060613299 -2.55E-04
    20 OT SD       0.15E+00   10.4     0.00006316     -1108.9063161309 -2.55E-04
    21 OT SD       0.15E+00    8.7     0.00006319     -1108.9065711145 -2.55E-04
    22 OT SD       0.15E+00    2.0     0.00006321     -1108.9068262901 -2.55E-04
    23 OT SD       0.15E+00    1.8     0.00006324     -1108.9070816645 -2.55E-04
    24 OT SD       0.15E+00    1.8     0.00006326     -1108.9073372423 -2.56E-04
    25 OT SD       0.15E+00    1.8     0.00006329     -1108.9075930266 -2.56E-04
    26 OT SD       0.15E+00    1.8     0.00006331     -1108.9078490195 -2.56E-04
    27 OT SD       0.15E+00    1.8     0.00006334     -1108.9081052223 -2.56E-04
    28 OT SD       0.15E+00    1.8     0.00006336     -1108.9083616356 -2.56E-04
    29 OT SD       0.15E+00    1.8     0.00006339     -1108.9086182593 -2.57E-04
    30 OT SD       0.15E+00    1.8     0.00006342     -1108.9088750932 -2.57E-04
    31 OT SD       0.15E+00    1.8     0.00006344     -1108.9091321367 -2.57E-04
    32 OT SD       0.15E+00    1.8     0.00006347     -1108.9093893890 -2.57E-04
    33 OT SD       0.15E+00    1.8     0.00006349     -1108.9096468490 -2.57E-04
    34 OT SD       0.15E+00    1.8     0.00006352     -1108.9099045150 -2.58E-04
    35 OT SD       0.15E+00    1.8     0.00006354     -1108.9101623855 -2.58E-04
    36 OT SD       0.15E+00    1.8     0.00006357     -1108.9104204594 -2.58E-04
    37 OT SD       0.15E+00    1.8     0.00006359     -1108.9106787343 -2.58E-04
    38 OT SD       0.15E+00    1.8     0.00006362     -1108.9109372085 -2.58E-04
    39 OT SD       0.15E+00    1.8     0.00006364     -1108.9111958795 -2.59E-04
    40 OT SD       0.15E+00    1.8     0.00006367     -1108.9114547453 -2.59E-04
    41 OT SD       0.15E+00    1.8     0.00006369     -1108.9117138037 -2.59E-04
    42 OT SD       0.15E+00    1.8     0.00006371     -1108.9119730519 -2.59E-04
    43 OT SD       0.15E+00    1.8     0.00006373     -1108.9122324872 -2.59E-04
    44 OT SD       0.15E+00    1.8     0.00006376     -1108.9124921069 -2.60E-04
    45 OT SD       0.15E+00    1.8     0.00006378     -1108.9127519082 -2.60E-04
    46 OT SD       0.15E+00    1.8     0.00006380     -1108.9130118881 -2.60E-04
    47 OT DIIS     0.15E+00    1.8     0.00006382     -1108.9132720433 -2.60E-04
    48 OT SD       0.15E+00    1.8     0.00018860     -1108.9111114052  2.16E-03
    49 OT SD       0.15E+00    1.8     0.00016310     -1108.9132235345 -2.11E-03
    50 OT SD       0.15E+00    1.8     0.00014484     -1108.9148237709 -1.60E-03

  Leaving inner SCF loop after reaching    50 steps.


  Electronic density on regular grids:       -673.0000004877       -0.0000004877
  Core density on regular grids:              675.9999999541       -0.0000000459
  Total charge density on r-space grids:        2.9999994665
  Total charge density g-space grids:           2.9999994665

  Overlap energy of the core charge distribution:               0.00005333249695
  Self energy of the core charge distribution:              -2597.23657311820534
  Core Hamiltonian energy:                                    759.74412118683540
  Hartree energy:                                            1024.34939294821970
  Exchange-correlation energy:                               -295.77181812021388

  Total energy:                                             -1108.91482377086732

  outer SCF iter =    3 RMS gradient =   0.14E-03 energy =      -1108.9148237709

  ----------------------------------- OT ---------------------------------------
  Minimizer      : DIIS                : direct inversion
                                         in the iterative subspace
                                         using   7 DIIS vectors
                                         safer DIIS on
  Preconditioner : FULL_KINETIC        : inversion of T + eS
  Precond_solver : DEFAULT
  stepsize       :    0.15000000                  energy_gap     :    0.20000000
  eps_taylor     :   0.10000E-15                  max_taylor     :             4
  ----------------------------------- OT ---------------------------------------

  Step     Update method      Time    Convergence         Total energy    Change
  ------------------------------------------------------------------------------
     1 OT DIIS     0.15E+00    3.6     0.00011634     -1108.9160993591 -1.28E-03
     2 OT DIIS     0.15E+00    1.8     0.00010790     -1108.9169311727 -8.32E-04
     3 OT DIIS     0.15E+00    1.8     0.00008437     -1108.9204962929 -3.57E-03
     4 OT SD       0.15E+00    1.8     0.00008041     -1108.9232749842 -2.78E-03
     5 OT DIIS     0.15E+00    1.8     0.00007983     -1108.9236865121 -4.12E-04
     6 OT DIIS     0.15E+00    1.8     0.00007698     -1108.9284335705 -4.75E-03
     7 OT SD       0.15E+00    1.8     0.00007535     -1108.9319477155 -3.51E-03
     8 OT SD       0.15E+00    1.8     0.00007506     -1108.9323096993 -3.62E-04
     9 OT DIIS     0.15E+00    1.8     0.00007487     -1108.9326692194 -3.60E-04
    10 OT SD       0.15E+00    1.8     0.00006908     -1108.9474125951 -1.47E-02
    11 OT SD       0.15E+00    1.8     0.00006873     -1108.9477167149 -3.04E-04
    12 OT SD       0.15E+00    1.8     0.00006846     -1108.9480179545 -3.01E-04
    13 OT DIIS     0.15E+00    1.8     0.00006824     -1108.9483169649 -2.99E-04
    14 OT DIIS     0.15E+00    1.8     0.00010208     -1108.9508429980 -2.53E-03
    15 OT SD       0.15E+00    1.8     0.00006231     -1108.9630617418 -1.22E-02
    16 OT SD       0.15E+00    1.8     0.00006201     -1108.9633091608 -2.47E-04
    17 OT DIIS     0.15E+00    1.8     0.00006179     -1108.9635543762 -2.45E-04
    18 OT SD       0.15E+00    1.8     0.00006030     -1108.9684752523 -4.92E-03
    19 OT DIIS     0.15E+00    1.8     0.00006025     -1108.9687074876 -2.32E-04
    20 OT SD       0.15E+00    1.8     0.00006125     -1108.9691617949 -4.54E-04
    21 OT DIIS     0.15E+00    1.8     0.00006103     -1108.9694010040 -2.39E-04
    22 OT DIIS     0.15E+00    1.8     0.00005996     -1108.9703979759 -9.97E-04
    23 OT SD       0.15E+00    1.8     0.00006004     -1108.9725026614 -2.10E-03
    24 OT SD       0.15E+00    1.9     0.00006001     -1108.9727329282 -2.30E-04
    25 OT SD       0.15E+00    1.8     0.00006000     -1108.9729630086 -2.30E-04
    26 OT SD       0.15E+00    1.8     0.00006000     -1108.9731930586 -2.30E-04
    27 OT SD       0.15E+00    1.8     0.00006001     -1108.9734231462 -2.30E-04
    28 OT SD       0.15E+00    1.8     0.00006002     -1108.9736533026 -2.30E-04
    29 OT SD       0.15E+00    1.9     0.00006003     -1108.9738835437 -2.30E-04
    30 OT SD       0.15E+00    1.9     0.00006005     -1108.9741138784 -2.30E-04
    31 OT DIIS     0.15E+00    1.8     0.00006006     -1108.9743443129 -2.30E-04
    32 OT SD       0.15E+00    1.9     0.00007142     -1109.0017659515 -2.74E-02
    33 OT SD       0.15E+00    1.8     0.00007034     -1109.0020891749 -3.23E-04
    34 OT SD       0.15E+00    1.8     0.00006962     -1109.0024036148 -3.14E-04
    35 OT SD       0.15E+00    1.9     0.00006907     -1109.0027120478 -3.08E-04
    36 OT SD       0.15E+00    1.9     0.00006863     -1109.0030159098 -3.04E-04
    37 OT SD       0.15E+00    1.8     0.00006825     -1109.0033160172 -3.00E-04
    38 OT DIIS     0.15E+00    1.8     0.00006791     -1109.0036128816 -2.97E-04
    39 OT SD       0.15E+00    1.8     0.00004665     -1109.0365268512 -3.29E-02

  *** SCF run converged in    39 steps ***


  Electronic density on regular grids:       -673.0000003656       -0.0000003656
  Core density on regular grids:              675.9999999541       -0.0000000459
  Total charge density on r-space grids:        2.9999995886
  Total charge density g-space grids:           2.9999995886

  Overlap energy of the core charge distribution:               0.00005333249695
  Self energy of the core charge distribution:              -2597.23657311820534
  Core Hamiltonian energy:                                    758.93549797800597
  Hartree energy:                                            1025.04948223666815
  Exchange-correlation energy:                               -295.78498728016945

  Total energy:                                             -1109.03652685120369

  outer SCF iter =    4 RMS gradient =   0.47E-04 energy =      -1109.0365268512
  outer SCF loop converged in   4 iterations or  189 steps


  Integrated absolute spin density  :                               8.9574635946
  Ideal and single determinant S**2 :                    0.750000       4.702045

 ENERGY| Total FORCE_EVAL ( QS ) energy (a.u.):            -1109.036662594743120


 --------  Informations at step =     0 ------------
  Optimization Method        =                 BFGS
  Total Energy               =     -1109.0366625947
  Used time                  =              457.048
 ---------------------------------------------------

 --------------------------
 OPTIMIZATION STEP:      1
 --------------------------

  Step is scaled; Scaling factor =  0.93149

 Spin 1

 Number of electrons:                                                        337
 Number of occupied orbitals:                                                337
 Number of molecular orbitals:                                               337

 Spin 2

 Number of electrons:                                                        336
 Number of occupied orbitals:                                                336
 Number of molecular orbitals:                                               336

 Number of orbital functions:                                                633
 Number of independent orbital functions:                                    633

 Extrapolation method: ASPC


 SCF WAVEFUNCTION OPTIMIZATION

  ----------------------------------- OT ---------------------------------------
  Minimizer      : DIIS                : direct inversion
                                         in the iterative subspace
                                         using   7 DIIS vectors
                                         safer DIIS on
  Preconditioner : FULL_KINETIC        : inversion of T + eS
  Precond_solver : DEFAULT
  stepsize       :    0.15000000                  energy_gap     :    0.20000000
  eps_taylor     :   0.10000E-15                  max_taylor     :             4
  ----------------------------------- OT ---------------------------------------

  Step     Update method      Time    Convergence         Total energy    Change
  ------------------------------------------------------------------------------
     1 OT DIIS     0.15E+00    1.2     0.00108860     -1110.6813529853 -1.11E+03
     2 OT DIIS     0.15E+00    1.8     0.00096961     -1110.7528360671 -7.15E-02
     3 OT DIIS     0.15E+00    1.8     0.00052546     -1111.0125292431 -2.60E-01
     4 OT DIIS     0.15E+00    1.9     0.00020803     -1111.1317825174 -1.19E-01
     5 OT DIIS     0.15E+00    1.9     0.00017352     -1111.1397421822 -7.96E-03
     6 OT DIIS     0.15E+00    1.9     0.00011364     -1111.1520928511 -1.24E-02
     7 OT DIIS     0.15E+00    1.8     0.00008328     -1111.1575964350 -5.50E-03
     8 OT DIIS     0.15E+00    1.8     0.00006811     -1111.1610914075 -3.49E-03
     9 OT DIIS     0.15E+00    1.8     0.00006411     -1111.1622599694 -1.17E-03
    10 OT DIIS     0.15E+00    1.8     0.00005435     -1111.1654579707 -3.20E-03
    11 OT DIIS     0.15E+00    1.8     0.00005274     -1111.1660867226 -6.29E-04
    12 OT DIIS     0.15E+00    1.8     0.00004743     -1111.1685096493 -2.42E-03

  *** SCF run converged in    12 steps ***


  Electronic density on regular grids:       -672.9999999864        0.0000000136
  Core density on regular grids:              675.9999999542       -0.0000000458
  Total charge density on r-space grids:        2.9999999678
  Total charge density g-space grids:           2.9999999678

  Overlap energy of the core charge distribution:               0.00000739405031
  Self energy of the core charge distribution:              -2597.23657311820534
  Core Hamiltonian energy:                                    740.45542553644964
  Hartree energy:                                            1036.37590474334934
  Exchange-correlation energy:                               -290.76327420493453

  Total energy:                                             -1111.16850964929040

  outer SCF iter =    1 RMS gradient =   0.47E-04 energy =      -1111.1685096493
  outer SCF loop converged in   1 iterations or   12 steps


  Integrated absolute spin density  :                               9.1797908681
  Ideal and single determinant S**2 :                    0.750000       4.728033

 ENERGY| Total FORCE_EVAL ( QS ) energy (a.u.):            -1111.171311750253153


 --------  Informations at step =     1 ------------
  Optimization Method        =                 BFGS
  Total Energy               =     -1111.1713117503
  Real energy change         =        -2.1346491555
  Predicted change in energy =        -1.8626274311
  Scaling factor             =         0.9314923037
  Step size                  =         0.4724315332
  Trust radius               =         0.4724315332
  Decrease in energy         =                  YES
  Used time                  =               24.223

  Convergence check :
  Max. step size             =         0.4724315332
  Conv. limit for step size  =         0.5000000000
  Convergence in step size   =                  YES
  RMS step size              =         0.1350276091
  Conv. limit for RMS step   =         0.0500000000
  Convergence in RMS step    =                   NO
  Max. gradient              =         0.0661654228
  Conv. limit for gradients  =         0.5000000000
  Conv. in gradients         =                  YES
  RMS gradient               =         0.0148831218
  Conv. limit for RMS grad.  =         0.0500000000
  Conv. in RMS gradients     =                  YES
 ---------------------------------------------------

 --------------------------
 OPTIMIZATION STEP:      2
 --------------------------

 Spin 1

 Number of electrons:                                                        337
 Number of occupied orbitals:                                                337
 Number of molecular orbitals:                                               337

 Spin 2

 Number of electrons:                                                        336
 Number of occupied orbitals:                                                336
 Number of molecular orbitals:                                               336

 Number of orbital functions:                                                633
 Number of independent orbital functions:                                    633

 Extrapolation method: ASPC


 SCF WAVEFUNCTION OPTIMIZATION

  ----------------------------------- OT ---------------------------------------
  Minimizer      : DIIS                : direct inversion
                                         in the iterative subspace
                                         using   7 DIIS vectors
                                         safer DIIS on
  Preconditioner : FULL_KINETIC        : inversion of T + eS
  Precond_solver : DEFAULT
  stepsize       :    0.15000000                  energy_gap     :    0.20000000
  eps_taylor     :   0.10000E-15                  max_taylor     :             4
  ----------------------------------- OT ---------------------------------------

  Step     Update method      Time    Convergence         Total energy    Change
  ------------------------------------------------------------------------------
     1 OT DIIS     0.15E+00    1.2     0.00115874     -1110.9113105799 -1.11E+03
     2 OT DIIS     0.15E+00    1.8     0.00105242     -1110.9930876551 -8.18E-02
     3 OT DIIS     0.15E+00    1.9     0.00055641     -1111.3535909738 -3.61E-01
     4 OT DIIS     0.15E+00    1.9     0.00026390     -1111.4761337327 -1.23E-01
     5 OT DIIS     0.15E+00    1.9     0.00021639     -1111.4895315933 -1.34E-02
     6 OT DIIS     0.15E+00    1.9     0.00014193     -1111.5064924531 -1.70E-02
     7 OT DIIS     0.15E+00    1.9     0.00008808     -1111.5158522652 -9.36E-03
     8 OT DIIS     0.15E+00    1.9     0.00007325     -1111.5185229965 -2.67E-03
     9 OT DIIS     0.15E+00    1.9     0.00006637     -1111.5200104446 -1.49E-03
    10 OT DIIS     0.15E+00    1.9     0.00005152     -1111.5232135100 -3.20E-03
    11 OT DIIS     0.15E+00    1.9     0.00004854     -1111.5239999620 -7.86E-04

  *** SCF run converged in    11 steps ***


  Electronic density on regular grids:       -672.9999999869        0.0000000131
  Core density on regular grids:              675.9999999543       -0.0000000457
  Total charge density on r-space grids:        2.9999999674
  Total charge density g-space grids:           2.9999999674

  Overlap energy of the core charge distribution:               0.00000332000153
  Self energy of the core charge distribution:              -2597.23657311820534
  Core Hamiltonian energy:                                    732.51390251543785
  Hartree energy:                                            1041.67010024203773
  Exchange-correlation energy:                               -288.47143292126049

  Total energy:                                             -1111.52399996198847

  outer SCF iter =    1 RMS gradient =   0.49E-04 energy =      -1111.5239999620
  outer SCF loop converged in   1 iterations or   11 steps


  Integrated absolute spin density  :                               9.5060104773
  Ideal and single determinant S**2 :                    0.750000       4.773907

 ENERGY| Total FORCE_EVAL ( QS ) energy (a.u.):            -1111.524528224144888


 --------  Informations at step =     2 ------------
  Optimization Method        =                 BFGS
  Total Energy               =     -1111.5245282241
  Real energy change         =        -0.3532164739
  Predicted change in energy =        -0.3310864977
  Scaling factor             =         0.9314923037
  Step size                  =         0.4257131632
  Trust radius               =         0.4724315332
  Decrease in energy         =                  YES
  Used time                  =               22.550

  Convergence check :
  Max. step size             =         0.4257131632
  Conv. limit for step size  =         0.5000000000
  Convergence in step size   =                  YES
  RMS step size              =         0.0893215725
  Conv. limit for RMS step   =         0.0500000000
  Convergence in RMS step    =                   NO
  Max. gradient              =         0.0538567895
  Conv. limit for gradients  =         0.5000000000
  Conv. in gradients         =                  YES
  RMS gradient               =         0.0071224786
  Conv. limit for RMS grad.  =         0.0500000000
  Conv. in RMS gradients     =                  YES
 ---------------------------------------------------

 --------------------------
 OPTIMIZATION STEP:      3
 --------------------------

 Spin 1

 Number of electrons:                                                        337
 Number of occupied orbitals:                                                337
 Number of molecular orbitals:                                               337

 Spin 2

 Number of electrons:                                                        336
 Number of occupied orbitals:                                                336
 Number of molecular orbitals:                                               336

 Number of orbital functions:                                                633
 Number of independent orbital functions:                                    633

 Extrapolation method: ASPC


 SCF WAVEFUNCTION OPTIMIZATION

  ----------------------------------- OT ---------------------------------------
  Minimizer      : DIIS                : direct inversion
                                         in the iterative subspace
                                         using   7 DIIS vectors
                                         safer DIIS on
  Preconditioner : FULL_KINETIC        : inversion of T + eS
  Precond_solver : DEFAULT
  stepsize       :    0.15000000                  energy_gap     :    0.20000000
  eps_taylor     :   0.10000E-15                  max_taylor     :             4
  ----------------------------------- OT ---------------------------------------

  Step     Update method      Time    Convergence         Total energy    Change
  ------------------------------------------------------------------------------
     1 OT DIIS     0.15E+00    1.2     0.00117208     -1110.9812905988 -1.11E+03
     2 OT DIIS     0.15E+00    1.8     0.00107599     -1111.0654099801 -8.41E-02
     3 OT DIIS     0.15E+00    1.9     0.00055699     -1111.4841434001 -4.19E-01
     4 OT DIIS     0.15E+00    1.9     0.00028536     -1111.5957202440 -1.12E-01
     5 OT DIIS     0.15E+00    1.9     0.00024987     -1111.6088788964 -1.32E-02
     6 OT DIIS     0.15E+00    1.9     0.00013057     -1111.6358777311 -2.70E-02
     7 OT DIIS     0.15E+00    1.9     0.00008555     -1111.6423700308 -6.49E-03
     8 OT DIIS     0.15E+00    1.9     0.00007482     -1111.6440959052 -1.73E-03
     9 OT DIIS     0.15E+00    1.9     0.00005844     -1111.6465287904 -2.43E-03
    10 OT DIIS     0.15E+00    1.9     0.00004153     -1111.6488749816 -2.35E-03

  *** SCF run converged in    10 steps ***


  Electronic density on regular grids:       -672.9999999886        0.0000000114
  Core density on regular grids:              675.9999999542       -0.0000000458
  Total charge density on r-space grids:        2.9999999656
  Total charge density g-space grids:           2.9999999656

  Overlap energy of the core charge distribution:               0.00000256708583
  Self energy of the core charge distribution:              -2597.23657311820534
  Core Hamiltonian energy:                                    728.67682773180911
  Hartree energy:                                            1044.32277868781966
  Exchange-correlation energy:                               -287.41191085012417

  Total energy:                                             -1111.64887498161488

  outer SCF iter =    1 RMS gradient =   0.42E-04 energy =      -1111.6488749816
  outer SCF loop converged in   1 iterations or   10 steps


  Integrated absolute spin density  :                               9.9786618135
  Ideal and single determinant S**2 :                    0.750000       4.858689

 ENERGY| Total FORCE_EVAL ( QS ) energy (a.u.):            -1111.649164179189938


 --------  Informations at step =     3 ------------
  Optimization Method        =                 BFGS
  Total Energy               =     -1111.6491641792
  Real energy change         =        -0.1246359550
  Predicted change in energy =        -0.1038235991
  Scaling factor             =         0.9314923037
  Step size                  =         0.2303717191
  Trust radius               =         0.4724315332
  Decrease in energy         =                  YES
  Used time                  =               20.705

  Convergence check :
  Max. step size             =         0.2303717191
  Conv. limit for step size  =         0.5000000000
  Convergence in step size   =                  YES
  RMS step size              =         0.0607701821
  Conv. limit for RMS step   =         0.0500000000
  Convergence in RMS step    =                   NO
  Max. gradient              =         0.0217388557
  Conv. limit for gradients  =         0.5000000000
  Conv. in gradients         =                  YES
  RMS gradient               =         0.0047000829
  Conv. limit for RMS grad.  =         0.0500000000
  Conv. in RMS gradients     =                  YES
 ---------------------------------------------------

 --------------------------
 OPTIMIZATION STEP:      4
 --------------------------

 Spin 1

 Number of electrons:                                                        337
 Number of occupied orbitals:                                                337
 Number of molecular orbitals:                                               337

 Spin 2

 Number of electrons:                                                        336
 Number of occupied orbitals:                                                336
 Number of molecular orbitals:                                               336

 Number of orbital functions:                                                633
 Number of independent orbital functions:                                    633

 Extrapolation method: ASPC


 SCF WAVEFUNCTION OPTIMIZATION

  ----------------------------------- OT ---------------------------------------
  Minimizer      : DIIS                : direct inversion
                                         in the iterative subspace
                                         using   7 DIIS vectors
                                         safer DIIS on
  Preconditioner : FULL_KINETIC        : inversion of T + eS
  Precond_solver : DEFAULT
  stepsize       :    0.15000000                  energy_gap     :    0.20000000
  eps_taylor     :   0.10000E-15                  max_taylor     :             4
  ----------------------------------- OT ---------------------------------------

  Step     Update method      Time    Convergence         Total energy    Change
  ------------------------------------------------------------------------------
     1 OT DIIS     0.15E+00    1.2     0.00095545     -1111.2870804744 -1.11E+03
     2 OT DIIS     0.15E+00    1.8     0.00087069     -1111.3427672299 -5.57E-02
     3 OT DIIS     0.15E+00    1.9     0.00047483     -1111.5943448506 -2.52E-01
     4 OT DIIS     0.15E+00    1.9     0.00023609     -1111.6843148301 -9.00E-02
     5 OT DIIS     0.15E+00    1.9     0.00020045     -1111.6923881760 -8.07E-03
     6 OT DIIS     0.15E+00    1.9     0.00011224     -1111.7086719762 -1.63E-02
     7 OT DIIS     0.15E+00    1.9     0.00007019     -1111.7137807845 -5.11E-03
     8 OT DIIS     0.15E+00    1.9     0.00005675     -1111.7152558364 -1.48E-03
     9 OT DIIS     0.15E+00    1.9     0.00005060     -1111.7161077317 -8.52E-04
    10 OT DIIS     0.15E+00    1.9     0.00003824     -1111.7178214872 -1.71E-03

  *** SCF run converged in    10 steps ***


  Electronic density on regular grids:       -672.9999999846        0.0000000154
  Core density on regular grids:              675.9999999542       -0.0000000458
  Total charge density on r-space grids:        2.9999999696
  Total charge density g-space grids:           2.9999999696

  Overlap energy of the core charge distribution:               0.00000238945442
  Self energy of the core charge distribution:              -2597.23657311820534
  Core Hamiltonian energy:                                    726.98452141276539
  Hartree energy:                                            1045.52220201577529
  Exchange-correlation energy:                               -286.98797418702998

  Total energy:                                             -1111.71782148724014

  outer SCF iter =    1 RMS gradient =   0.38E-04 energy =      -1111.7178214872
  outer SCF loop converged in   1 iterations or   10 steps


  Integrated absolute spin density  :                              10.3928105489
  Ideal and single determinant S**2 :                    0.750000       4.927391

 ENERGY| Total FORCE_EVAL ( QS ) energy (a.u.):            -1111.718062587030090


 --------  Informations at step =     4 ------------
  Optimization Method        =                 BFGS
  Total Energy               =     -1111.7180625870
  Real energy change         =        -0.0688984078
  Predicted change in energy =        -0.0503723672
  Scaling factor             =         0.9314923037
  Step size                  =         0.3183066208
  Trust radius               =         0.4724315332
  Decrease in energy         =                  YES
  Used time                  =               20.712

  Convergence check :
  Max. step size             =         0.3183066208
  Conv. limit for step size  =         0.5000000000
  Convergence in step size   =                  YES
  RMS step size              =         0.0523183048
  Conv. limit for RMS step   =         0.0500000000
  Convergence in RMS step    =                   NO
  Max. gradient              =         0.0347362786
  Conv. limit for gradients  =         0.5000000000
  Conv. in gradients         =                  YES
  RMS gradient               =         0.0046073269
  Conv. limit for RMS grad.  =         0.0500000000
  Conv. in RMS gradients     =                  YES
 ---------------------------------------------------

 --------------------------
 OPTIMIZATION STEP:      5
 --------------------------

 Spin 1

 Number of electrons:                                                        337
 Number of occupied orbitals:                                                337
 Number of molecular orbitals:                                               337

 Spin 2

 Number of electrons:                                                        336
 Number of occupied orbitals:                                                336
 Number of molecular orbitals:                                               336

 Number of orbital functions:                                                633
 Number of independent orbital functions:                                    633

 Extrapolation method: ASPC


 SCF WAVEFUNCTION OPTIMIZATION

  ----------------------------------- OT ---------------------------------------
  Minimizer      : DIIS                : direct inversion
                                         in the iterative subspace
                                         using   7 DIIS vectors
                                         safer DIIS on
  Preconditioner : FULL_KINETIC        : inversion of T + eS
  Precond_solver : DEFAULT
  stepsize       :    0.15000000                  energy_gap     :    0.20000000
  eps_taylor     :   0.10000E-15                  max_taylor     :             4
  ----------------------------------- OT ---------------------------------------

  Step     Update method      Time    Convergence         Total energy    Change
  ------------------------------------------------------------------------------
     1 OT DIIS     0.15E+00    1.2     0.00065055     -1111.5886407523 -1.11E+03
     2 OT DIIS     0.15E+00    1.8     0.00059366     -1111.6144748242 -2.58E-02
     3 OT DIIS     0.15E+00    1.8     0.00032602     -1111.7324630505 -1.18E-01
     4 OT DIIS     0.15E+00    1.8     0.00017477     -1111.7740850562 -4.16E-02
     5 OT DIIS     0.15E+00    1.9     0.00013306     -1111.7813869542 -7.30E-03
     6 OT DIIS     0.15E+00    1.9     0.00008629     -1111.7883806316 -6.99E-03
     7 OT DIIS     0.15E+00    1.9     0.00006318     -1111.7913465519 -2.97E-03
     8 OT DIIS     0.15E+00    1.9     0.00005154     -1111.7930812476 -1.73E-03
     9 OT DIIS     0.15E+00    1.9     0.00004794     -1111.7938487204 -7.67E-04

  *** SCF run converged in     9 steps ***


  Electronic density on regular grids:       -672.9999999872        0.0000000128
  Core density on regular grids:              675.9999999542       -0.0000000458
  Total charge density on r-space grids:        2.9999999670
  Total charge density g-space grids:           2.9999999670

  Overlap energy of the core charge distribution:               0.00000230057693
  Self energy of the core charge distribution:              -2597.23657311820534
  Core Hamiltonian energy:                                    725.40353546202152
  Hartree energy:                                            1046.66020099434354
  Exchange-correlation energy:                               -286.62101435916014

  Total energy:                                             -1111.79384872042374

  outer SCF iter =    1 RMS gradient =   0.48E-04 energy =      -1111.7938487204
  outer SCF loop converged in   1 iterations or    9 steps


  Integrated absolute spin density  :                              10.5038280494
  Ideal and single determinant S**2 :                    0.750000       4.922150

 ENERGY| Total FORCE_EVAL ( QS ) energy (a.u.):            -1111.795560125688098


 --------  Informations at step =     5 ------------
  Optimization Method        =                 BFGS
  Total Energy               =     -1111.7955601257
  Real energy change         =        -0.0774975387
  Predicted change in energy =        -0.0662081666
  Scaling factor             =         0.9314923037
  Step size                  =         0.3984320205
  Trust radius               =         0.4724315332
  Decrease in energy         =                  YES
  Used time                  =               18.813

  Convergence check :
  Max. step size             =         0.3984320205
  Conv. limit for step size  =         0.5000000000
  Convergence in step size   =                  YES
  RMS step size              =         0.0898100357
  Conv. limit for RMS step   =         0.0500000000
  Convergence in RMS step    =                   NO
  Max. gradient              =         0.0648455640
  Conv. limit for gradients  =         0.5000000000
  Conv. in gradients         =                  YES
  RMS gradient               =         0.0057083081
  Conv. limit for RMS grad.  =         0.0500000000
  Conv. in RMS gradients     =                  YES
 ---------------------------------------------------

 --------------------------
 OPTIMIZATION STEP:      6
 --------------------------

 Spin 1

 Number of electrons:                                                        337
 Number of occupied orbitals:                                                337
 Number of molecular orbitals:                                               337

 Spin 2

 Number of electrons:                                                        336
 Number of occupied orbitals:                                                336
 Number of molecular orbitals:                                               336

 Number of orbital functions:                                                633
 Number of independent orbital functions:                                    633

 Extrapolation method: ASPC


 SCF WAVEFUNCTION OPTIMIZATION

  ----------------------------------- OT ---------------------------------------
  Minimizer      : DIIS                : direct inversion
                                         in the iterative subspace
                                         using   7 DIIS vectors
                                         safer DIIS on
  Preconditioner : FULL_KINETIC        : inversion of T + eS
  Precond_solver : DEFAULT
  stepsize       :    0.15000000                  energy_gap     :    0.20000000
  eps_taylor     :   0.10000E-15                  max_taylor     :             4
  ----------------------------------- OT ---------------------------------------

  Step     Update method      Time    Convergence         Total energy    Change
  ------------------------------------------------------------------------------
     1 OT DIIS     0.15E+00    1.2     0.00052301     -1111.7137270567 -1.11E+03
     2 OT DIIS     0.15E+00    1.8     0.00047091     -1111.7303059786 -1.66E-02
     3 OT DIIS     0.15E+00    1.8     0.00028475     -1111.7931449724 -6.28E-02
     4 OT DIIS     0.15E+00    1.8     0.00015150     -1111.8264613111 -3.33E-02
     5 OT DIIS     0.15E+00    1.9     0.00011756     -1111.8320992755 -5.64E-03
     6 OT DIIS     0.15E+00    1.9     0.00008128     -1111.8378994823 -5.80E-03
     7 OT DIIS     0.15E+00    1.9     0.00006487     -1111.8405571857 -2.66E-03
     8 OT DIIS     0.15E+00    1.9     0.00005474     -1111.8427285339 -2.17E-03
     9 OT DIIS     0.15E+00    1.9     0.00005163     -1111.8436128016 -8.84E-04
    10 OT DIIS     0.15E+00    1.9     0.00004525     -1111.8459218770 -2.31E-03

  *** SCF run converged in    10 steps ***


  Electronic density on regular grids:       -672.9999999867        0.0000000133
  Core density on regular grids:              675.9999999542       -0.0000000458
  Total charge density on r-space grids:        2.9999999675
  Total charge density g-space grids:           2.9999999675

  Overlap energy of the core charge distribution:               0.00000234795065
  Self energy of the core charge distribution:              -2597.23657311820534
  Core Hamiltonian energy:                                    724.99456175916339
  Hartree energy:                                            1046.98062113504352
  Exchange-correlation energy:                               -286.58453400095175

  Total energy:                                             -1111.84592187699945

  outer SCF iter =    1 RMS gradient =   0.45E-04 energy =      -1111.8459218770
  outer SCF loop converged in   1 iterations or   10 steps


  Integrated absolute spin density  :                              10.3091194404
  Ideal and single determinant S**2 :                    0.750000       4.858301

 ENERGY| Total FORCE_EVAL ( QS ) energy (a.u.):            -1111.846543382072241


 --------  Informations at step =     6 ------------
  Optimization Method        =                 BFGS
  Total Energy               =     -1111.8465433821
  Real energy change         =        -0.0509832564
  Predicted change in energy =        -0.0601789792
  Scaling factor             =         0.9314923037
  Step size                  =         0.3938117581
  Trust radius               =         0.4724315332
  Decrease in energy         =                  YES
  Used time                  =               20.686

  Convergence check :
  Max. step size             =         0.3938117581
  Conv. limit for step size  =         0.5000000000
  Convergence in step size   =                  YES
  RMS step size              =         0.0830659374
  Conv. limit for RMS step   =         0.0500000000
  Convergence in RMS step    =                   NO
  Max. gradient              =         0.1019492105
  Conv. limit for gradients  =         0.5000000000
  Conv. in gradients         =                  YES
  RMS gradient               =         0.0078640910
  Conv. limit for RMS grad.  =         0.0500000000
  Conv. in RMS gradients     =                  YES
 ---------------------------------------------------

 --------------------------
 OPTIMIZATION STEP:      7
 --------------------------

  Step is scaled; Scaling factor =  0.62816

 Spin 1

 Number of electrons:                                                        337
 Number of occupied orbitals:                                                337
 Number of molecular orbitals:                                               337

 Spin 2

 Number of electrons:                                                        336
 Number of occupied orbitals:                                                336
 Number of molecular orbitals:                                               336

 Number of orbital functions:                                                633
 Number of independent orbital functions:                                    633

 Extrapolation method: ASPC


 SCF WAVEFUNCTION OPTIMIZATION

  ----------------------------------- OT ---------------------------------------
  Minimizer      : DIIS                : direct inversion
                                         in the iterative subspace
                                         using   7 DIIS vectors
                                         safer DIIS on
  Preconditioner : FULL_KINETIC        : inversion of T + eS
  Precond_solver : DEFAULT
  stepsize       :    0.15000000                  energy_gap     :    0.20000000
  eps_taylor     :   0.10000E-15                  max_taylor     :             4
  ----------------------------------- OT ---------------------------------------

  Step     Update method      Time    Convergence         Total energy    Change
  ------------------------------------------------------------------------------
     1 OT DIIS     0.15E+00    1.2     0.00053259     -1111.7996681259 -1.11E+03
     2 OT DIIS     0.15E+00    1.8     0.00047101     -1111.8167221780 -1.71E-02
     3 OT DIIS     0.15E+00    1.8     0.00023857     -1111.8756300783 -5.89E-02
     4 OT DIIS     0.15E+00    1.8     0.00013875     -1111.8935717462 -1.79E-02
     5 OT DIIS     0.15E+00    1.8     0.00011676     -1111.8977327263 -4.16E-03
     6 OT DIIS     0.15E+00    9.2     0.00007454     -1111.9038042209 -6.07E-03
     7 OT DIIS     0.15E+00    9.4     0.00005634     -1111.9060743694 -2.27E-03
     8 OT DIIS     0.15E+00    9.6     0.00005128     -1111.9070417963 -9.67E-04
     9 OT DIIS     0.15E+00    9.7     0.00004616     -1111.9080954904 -1.05E-03

  *** SCF run converged in     9 steps ***


  Electronic density on regular grids:       -672.9999999853        0.0000000147
  Core density on regular grids:              675.9999999542       -0.0000000458
  Total charge density on r-space grids:        2.9999999689
  Total charge density g-space grids:           2.9999999689

  Overlap energy of the core charge distribution:               0.00000262128524
  Self energy of the core charge distribution:              -2597.23657311820534
  Core Hamiltonian energy:                                    725.46833913934006
  Hartree energy:                                            1046.61332577017788
  Exchange-correlation energy:                               -286.75318990296023

  Total energy:                                             -1111.90809549036248

  outer SCF iter =    1 RMS gradient =   0.46E-04 energy =      -1111.9080954904
  outer SCF loop converged in   1 iterations or    9 steps


  Integrated absolute spin density  :                              10.1366370795
  Ideal and single determinant S**2 :                    0.750000       4.813767

 ENERGY| Total FORCE_EVAL ( QS ) energy (a.u.):            -1111.909759615156645


 --------  Informations at step =     7 ------------
  Optimization Method        =                 BFGS
  Total Energy               =     -1111.9097596152
  Real energy change         =        -0.0632162331
  Predicted change in energy =        -0.1123205874
  Scaling factor             =         0.6281551856
  Step size                  =         0.4724315332
  Trust radius               =         0.4724315332
  Decrease in energy         =                  YES
  Used time                  =               52.936

  Convergence check :
  Max. step size             =         0.4724315332
  Conv. limit for step size  =         0.5000000000
  Convergence in step size   =                  YES
  RMS step size              =         0.0897255688
  Conv. limit for RMS step   =         0.0500000000
  Convergence in RMS step    =                   NO
  Max. gradient              =         0.0886101082
  Conv. limit for gradients  =         0.5000000000
  Conv. in gradients         =                  YES
  RMS gradient               =         0.0093892564
  Conv. limit for RMS grad.  =         0.0500000000
  Conv. in RMS gradients     =                  YES
 ---------------------------------------------------

 --------------------------
 OPTIMIZATION STEP:      8
 --------------------------

  Step is scaled; Scaling factor =  0.39804

 Spin 1

 Number of electrons:                                                        337
 Number of occupied orbitals:                                                337
 Number of molecular orbitals:                                               337

 Spin 2

 Number of electrons:                                                        336
 Number of occupied orbitals:                                                336
 Number of molecular orbitals:                                               336

 Number of orbital functions:                                                633
 Number of independent orbital functions:                                    633

 Extrapolation method: ASPC


 SCF WAVEFUNCTION OPTIMIZATION

  ----------------------------------- OT ---------------------------------------
  Minimizer      : DIIS                : direct inversion
                                         in the iterative subspace
                                         using   7 DIIS vectors
                                         safer DIIS on
  Preconditioner : FULL_KINETIC        : inversion of T + eS
  Precond_solver : DEFAULT
  stepsize       :    0.15000000                  energy_gap     :    0.20000000
  eps_taylor     :   0.10000E-15                  max_taylor     :             4
  ----------------------------------- OT ---------------------------------------

  Step     Update method      Time    Convergence         Total energy    Change
  ------------------------------------------------------------------------------
     1 OT DIIS     0.15E+00    6.3     0.00062162     -1111.9540641864 -1.11E+03
     2 OT DIIS     0.15E+00    6.7     0.00054359     -1111.9771909546 -2.31E-02
     3 OT DIIS     0.15E+00    2.7     0.00020167     -1112.0513085257 -7.41E-02
     4 OT DIIS     0.15E+00    1.8     0.00011899     -1112.0602273127 -8.92E-03
     5 OT DIIS     0.15E+00    1.8     0.00009462     -1112.0642183501 -3.99E-03
     6 OT DIIS     0.15E+00    1.8     0.00007016     -1112.0666883923 -2.47E-03
     7 OT DIIS     0.15E+00    1.8     0.00005661     -1112.0687150071 -2.03E-03
     8 OT DIIS     0.15E+00    1.8     0.00004869     -1112.0695047913 -7.90E-04

  *** SCF run converged in     8 steps ***


  Electronic density on regular grids:       -672.9999999850        0.0000000150
  Core density on regular grids:              675.9999999541       -0.0000000459
  Total charge density on r-space grids:        2.9999999691
  Total charge density g-space grids:           2.9999999691

  Overlap energy of the core charge distribution:               0.00000256125613
  Self energy of the core charge distribution:              -2597.23657311820534
  Core Hamiltonian energy:                                    724.51813645685638
  Hartree energy:                                            1047.25712862162709
  Exchange-correlation energy:                               -286.60819931286443

  Total energy:                                             -1112.06950479133002

  outer SCF iter =    1 RMS gradient =   0.49E-04 energy =      -1112.0695047913
  outer SCF loop converged in   1 iterations or    8 steps


  Integrated absolute spin density  :                               9.9670607598
  Ideal and single determinant S**2 :                    0.750000       4.806403

 ENERGY| Total FORCE_EVAL ( QS ) energy (a.u.):            -1112.071000903986260


 --------  Informations at step =     8 ------------
  Optimization Method        =                 BFGS
  Total Energy               =     -1112.0710009040
  Real energy change         =        -0.1612412888
  Predicted change in energy =        -0.0951733132
  Scaling factor             =         0.3980366571
  Step size                  =         0.4724315332
  Trust radius               =         0.4724315332
  Decrease in energy         =                  YES
  Used time                  =               30.916

  Convergence check :
  Max. step size             =         0.4724315332
  Conv. limit for step size  =         0.5000000000
  Convergence in step size   =                  YES
  RMS step size              =         0.0807774416
  Conv. limit for RMS step   =         0.0500000000
  Convergence in RMS step    =                   NO
  Max. gradient              =         0.1738908647
  Conv. limit for gradients  =         0.5000000000
  Conv. in gradients         =                  YES
  RMS gradient               =         0.0135132680
  Conv. limit for RMS grad.  =         0.0500000000
  Conv. in RMS gradients     =                  YES
 ---------------------------------------------------

 --------------------------
 OPTIMIZATION STEP:      9
 --------------------------

  Step is scaled; Scaling factor =  0.00052

 Spin 1

 Number of electrons:                                                        337
 Number of occupied orbitals:                                                337
 Number of molecular orbitals:                                               337

 Spin 2

 Number of electrons:                                                        336
 Number of occupied orbitals:                                                336
 Number of molecular orbitals:                                               336

 Number of orbital functions:                                                633
 Number of independent orbital functions:                                    633

 Extrapolation method: ASPC


 SCF WAVEFUNCTION OPTIMIZATION

  ----------------------------------- OT ---------------------------------------
  Minimizer      : DIIS                : direct inversion
                                         in the iterative subspace
                                         using   7 DIIS vectors
                                         safer DIIS on
  Preconditioner : FULL_KINETIC        : inversion of T + eS
  Precond_solver : DEFAULT
  stepsize       :    0.15000000                  energy_gap     :    0.20000000
  eps_taylor     :   0.10000E-15                  max_taylor     :             4
  ----------------------------------- OT ---------------------------------------

  Step     Update method      Time    Convergence         Total energy    Change
  ------------------------------------------------------------------------------
     1 OT DIIS     0.15E+00    1.2     0.00048210     -1112.3682187907 -1.11E+03
     2 OT DIIS     0.15E+00    1.8     0.00041070     -1112.3819435276 -1.37E-02
     3 OT DIIS     0.15E+00    1.9     0.00020117     -1112.4179578847 -3.60E-02
     4 OT DIIS     0.15E+00    1.8     0.00011125     -1112.4322238636 -1.43E-02
     5 OT DIIS     0.15E+00    1.8     0.00009510     -1112.4346637589 -2.44E-03
     6 OT DIIS     0.15E+00    1.8     0.00007672     -1112.4376354266 -2.97E-03
     7 OT DIIS     0.15E+00    1.8     0.00006103     -1112.4407563819 -3.12E-03
     8 OT DIIS     0.15E+00    1.8     0.00005541     -1112.4428974146 -2.14E-03
     9 OT DIIS     0.15E+00    1.8     0.00005139     -1112.4437786299 -8.81E-04
    10 OT DIIS     0.15E+00    1.8     0.00004500     -1112.4464297181 -2.65E-03

  *** SCF run converged in    10 steps ***


  Electronic density on regular grids:       -672.9999999847        0.0000000153
  Core density on regular grids:              675.9999999541       -0.0000000459
  Total charge density on r-space grids:        2.9999999694
  Total charge density g-space grids:           2.9999999694

  Overlap energy of the core charge distribution:               0.00000250593372
  Self energy of the core charge distribution:              -2597.23657311820534
  Core Hamiltonian energy:                                    723.94182682906921
  Hartree energy:                                            1047.54862509228110
  Exchange-correlation energy:                               -286.70031102721759

  Total energy:                                             -1112.44642971813869

  outer SCF iter =    1 RMS gradient =   0.45E-04 energy =      -1112.4464297181
  outer SCF loop converged in   1 iterations or   10 steps


  Integrated absolute spin density  :                               9.8241660159
  Ideal and single determinant S**2 :                    0.750000       4.805549

 ENERGY| Total FORCE_EVAL ( QS ) energy (a.u.):            -1112.446901979036738


 --------  Informations at step =     9 ------------
  Optimization Method        =                 BFGS
  Total Energy               =     -1112.4469019790
  Real energy change         =        -0.3759010751
  Predicted change in energy =        -0.3529575505
  Scaling factor             =         0.0005240525
  Step size                  =         0.4724315332
  Trust radius               =         0.4724315332
  Decrease in energy         =                  YES
  Used time                  =               20.450

  Convergence check :
  Max. step size             =         0.4724315332
  Conv. limit for step size  =         0.5000000000
  Convergence in step size   =                  YES
  RMS step size              =         0.0461368194
  Conv. limit for RMS step   =         0.0500000000
  Convergence in RMS step    =                  YES
  Max. gradient              =         0.2323808058
  Conv. limit for gradients  =         0.5000000000
  Conv. in gradients         =                  YES
  RMS gradient               =         0.0186463767
  Conv. limit for RMS grad.  =         0.0500000000
  Conv. in RMS gradients     =                  YES
 ---------------------------------------------------

 *******************************************************************************
 ***                    GEOMETRY OPTIMIZATION COMPLETED                      ***
 *******************************************************************************

                    Reevaluating energy at the minimum

 Spin 1

 Number of electrons:                                                        337
 Number of occupied orbitals:                                                337
 Number of molecular orbitals:                                               337

 Spin 2

 Number of electrons:                                                        336
 Number of occupied orbitals:                                                336
 Number of molecular orbitals:                                               336

 Number of orbital functions:                                                633
 Number of independent orbital functions:                                    633

 Extrapolation method: ASPC


 SCF WAVEFUNCTION OPTIMIZATION

  ----------------------------------- OT ---------------------------------------
  Minimizer      : DIIS                : direct inversion
                                         in the iterative subspace
                                         using   7 DIIS vectors
                                         safer DIIS on
  Preconditioner : FULL_KINETIC        : inversion of T + eS
  Precond_solver : DEFAULT
  stepsize       :    0.15000000                  energy_gap     :    0.20000000
  eps_taylor     :   0.10000E-15                  max_taylor     :             4
  ----------------------------------- OT ---------------------------------------

  Step     Update method      Time    Convergence         Total energy    Change
  ------------------------------------------------------------------------------
     1 OT DIIS     0.15E+00    1.2     0.00080395     -1112.1837820621 -1.11E+03
     2 OT DIIS     0.15E+00    1.8     0.00072609     -1112.2230435593 -3.93E-02
     3 OT DIIS     0.15E+00    1.8     0.00038629     -1112.3746200656 -1.52E-01
     4 OT DIIS     0.15E+00    1.8     0.00032078     -1112.3891037852 -1.45E-02
     5 OT DIIS     0.15E+00    1.8     0.00016429     -1112.4293713363 -4.03E-02
     6 OT DIIS     0.15E+00    1.8     0.00012627     -1112.4340755238 -4.70E-03
     7 OT DIIS     0.15E+00    1.8     0.00009515     -1112.4384252284 -4.35E-03
     8 OT DIIS     0.15E+00    1.8     0.00006676     -1112.4417069106 -3.28E-03
     9 OT DIIS     0.15E+00    1.8     0.00005753     -1112.4430491134 -1.34E-03
    10 OT DIIS     0.15E+00    1.8     0.00005291     -1112.4443462816 -1.30E-03
    11 OT DIIS     0.15E+00    1.8     0.00004545     -1112.4461501829 -1.80E-03

  *** SCF run converged in    11 steps ***


  Electronic density on regular grids:       -672.9999999847        0.0000000153
  Core density on regular grids:              675.9999999541       -0.0000000459
  Total charge density on r-space grids:        2.9999999694
  Total charge density g-space grids:           2.9999999694

  Overlap energy of the core charge distribution:               0.00000250593372
  Self energy of the core charge distribution:              -2597.23657311820534
  Core Hamiltonian energy:                                    723.88103031352853
  Hartree energy:                                            1047.60365639706151
  Exchange-correlation energy:                               -286.69426628119032

  Total energy:                                             -1112.44615018287163

  outer SCF iter =    1 RMS gradient =   0.45E-04 energy =      -1112.4461501829
  outer SCF loop converged in   1 iterations or   11 steps


  Integrated absolute spin density  :                               9.7760227999
  Ideal and single determinant S**2 :                    0.750000       4.817536

 ENERGY| Total FORCE_EVAL ( QS ) energy (a.u.):            -1112.446150182871634


 -------------------------------------------------------------------------------
 -                                                                             -
 -                                DBCSR STATISTICS                             -
 -                                                                             -
 -------------------------------------------------------------------------------
[...]
 flops    4 x    1 x   16                94581376       0.0%    100.0%      0.0%
 flops    1 x    4 x   16                94864896       0.0%    100.0%      0.0%
 flops    4 x    1 x   17               100492712       0.0%    100.0%      0.0%
 flops    1 x    4 x   17               100793952       0.0%    100.0%      0.0%
 flops   16 x   16 x   57               166640640       0.0%    100.0%      0.0%
 flops    4 x   16 x   17               183549952       0.0%    100.0%      0.0%
 flops   17 x   16 x    4               183549952       0.0%    100.0%      0.0%
 flops   17 x   17 x   57               188121660       0.0%    100.0%      0.0%
 flops   17 x   17 x    4               191766528       0.0%    100.0%      0.0%
 flops   16 x   16 x   58               203476992       0.0%    100.0%      0.0%
 flops   57 x   16 x   16               206768640       0.0%    100.0%      0.0%
 flops   17 x   17 x   58               229706448       0.0%    100.0%      0.0%
 flops   57 x   17 x   17               233422410       0.0%    100.0%      0.0%
 flops    4 x   17 x   17               241779712       0.0%    100.0%      0.0%
 flops   58 x   16 x   16               252475392       0.0%    100.0%      0.0%
 flops   58 x   17 x   17               285021048       0.0%    100.0%      0.0%
 flops    4 x   32 x   32               293601280       0.0%    100.0%      0.0%
 flops   17 x    1 x   32               350248960       0.0%    100.0%      0.0%
 flops    1 x   17 x   32               350771200       0.0%    100.0%      0.0%
 flops   16 x   16 x   32               390922240       0.0%    100.0%      0.0%
 flops   16 x   32 x   16               390922240       0.0%    100.0%      0.0%
 flops   32 x   16 x   16               390922240       0.0%    100.0%      0.0%
 flops    1 x   16 x    4               402566784       0.0%    100.0%      0.0%
 flops    4 x   16 x    1               402566784       0.0%    100.0%      0.0%
 flops    1 x   17 x    4               420769992       0.0%    100.0%      0.0%
 flops    4 x   17 x    1               420769992       0.0%    100.0%      0.0%
 flops   32 x   17 x   17               467208960       0.0%    100.0%      0.0%
 flops    1 x    1 x   32               526457600       0.0%    100.0%      0.0%
 flops   17 x   17 x   32               581884160       0.0%    100.0%      0.0%
 flops   17 x   32 x   17               708951680       0.0%    100.0%      0.0%
 flops   57 x   16 x   57               787557600       0.0%    100.0%      0.0%
 flops    4 x    4 x   16               829064192       0.0%    100.0%      0.0%
 flops   57 x   17 x   57               836779950       0.0%    100.0%      0.0%
 flops    4 x    4 x   17               880880704       0.0%    100.0%      0.0%
 flops   57 x   16 x   58               961649280       0.0%    100.0%      0.0%
 flops   58 x   16 x   57               961649280       0.0%    100.0%      0.0%
 flops   57 x   17 x   58              1021752360       0.0%    100.0%      0.0%
 flops   58 x   17 x   57              1021752360       0.0%    100.0%      0.0%
 flops   58 x   16 x   58              1174224384       0.0%    100.0%      0.0%
 flops   58 x   17 x   58              1247613408       0.0%    100.0%      0.0%
 flops   17 x   32 x    1              1477852160       0.0%    100.0%      0.0%
 flops    1 x   32 x   17              1477852160       0.0%    100.0%      0.0%
 flops   17 x    4 x   32              1726873600       0.0%    100.0%      0.0%
 flops    4 x   17 x   32              1726873600       0.0%    100.0%      0.0%
 flops    1 x   32 x    1              2132360960       0.0%    100.0%      0.0%
 flops   16 x   32 x   57              3332812800       0.0%    100.0%      0.0%
 flops   32 x   16 x   57              3332812800       0.0%    100.0%      0.0%
 flops    4 x   16 x    4              3479571456       0.0%    100.0%      0.0%
 flops   17 x   32 x   57              3541113600       0.0%    100.0%      0.0%
 flops   32 x   17 x   57              3541113600       0.0%    100.0%      0.0%
 flops    4 x   17 x    4              3637120896       0.0%    100.0%      0.0%
 flops    4 x    1 x   32              3783255040       0.0%    100.0%      0.0%
 flops    1 x    4 x   32              3794595840       0.0%    100.0%      0.0%
 flops   16 x   32 x   58              4069539840       0.0%    100.0%      0.0%
 flops   32 x   16 x   58              4069539840       0.0%    100.0%      0.0%
 flops   57 x   16 x   32              4135372800       0.0%    100.0%      0.0%
 flops   57 x   32 x   16              4135372800       0.0%    100.0%      0.0%
 flops   17 x   32 x   58              4323886080       0.0%    100.0%      0.0%
 flops   32 x   17 x   58              4323886080       0.0%    100.0%      0.0%
 flops   57 x   17 x   32              4393833600       0.0%    100.0%      0.0%
 flops   57 x   32 x   17              4393833600       0.0%    100.0%      0.0%
 flops   58 x   32 x   16              5049507840       0.0%    100.0%      0.0%
 flops   58 x   16 x   32              5049507840       0.0%    100.0%      0.0%
 flops   58 x   32 x   17              5365102080       0.0%    100.0%      0.0%
 flops   58 x   17 x   32              5365102080       0.0%    100.0%      0.0%
 flops   17 x   32 x    4              7280721920       0.0%    100.0%      0.0%
 flops    4 x   32 x   17              7280721920       0.0%    100.0%      0.0%
 flops   32 x   32 x   16              7818444800       0.0%    100.0%      0.0%
 flops   16 x   32 x   32              7818444800       0.0%    100.0%      0.0%
 flops   32 x   16 x   32              7818444800       0.0%    100.0%      0.0%
 flops   32 x   32 x   17              8794521600       0.0%    100.0%      0.0%
 flops   32 x   17 x   32              8794521600       0.0%    100.0%      0.0%
 flops   17 x   32 x   32              8804270080       0.0%    100.0%      0.0%
 flops    4 x   32 x    1             15971712000       0.0%    100.0%      0.0%
 flops    1 x   32 x    4             15971712000       0.0%    100.0%      0.0%
 flops   57 x   32 x   57             31502304000       0.0%    100.0%      0.0%
 flops    4 x    4 x   32             33162567680       0.0%    100.0%      0.0%
 flops   58 x   32 x   57             38465971200       0.0%    100.0%      0.0%
 flops   57 x   32 x   58             38465971200       0.0%    100.0%      0.0%
 flops   58 x   32 x   58             46968975360       0.0%    100.0%      0.0%
 flops   32 x   32 x   57            133312512000       0.0%    100.0%      0.0%
 flops    4 x   32 x    4            138054881280       0.0%    100.0%      0.0%
 flops   32 x   32 x   58            162781593600       0.0%    100.0%      0.0%
 flops   57 x   32 x   32            165414912000       0.0%    100.0%      0.0%
 flops   58 x   32 x   32            201980313600       0.0%    100.0%      0.0%
 flops   32 x   32 x   32            321912832000       0.0%    100.0%      0.0%
 flops total                         1.519399E+12       0.0%    100.0%      0.0%
 flops max/rank                     14.015660E+09       0.0%    100.0%      0.0%
 matmuls inhomo. stacks                         0       0.0%      0.0%      0.0%
 matmuls total                          421941421       0.0%    100.0%      0.0%
 number of processed stacks              25376813       0.0%    100.0%      0.0%
 average stack size                                     0.0      16.6       0.0
 marketing flops                     1.799173E+12
 -------------------------------------------------------------------------------
 # multiplications                          12619
 max memory usage/rank             196.763648E+06
 # max total images/rank                        1
 # MPI messages exchanged                30537980
 # MPI messages filtered                        0
 MPI messages size (elements):
  total size                        42.273751E+09
  min size                           0.000000E+00
  max size                           3.364000E+03
  average size                       1.384301E+03
 MPI breakdown and total messages size (bytes):
             size <=      128               98560                        0
       128 < size <=     8192            16483390             123537297360
      8192 < size <=    32768            13956030             214656995760
     32768 < size <=   131072                   0                        0
    131072 < size <=  4194304                   0                        0
   4194304 < size <= 16777216                   0                        0
  16777216 < size                               0                        0
 -------------------------------------------------------------------------------

 MEMORY| Estimated peak process memory [MiB]                                 188

 -------------------------------------------------------------------------------
 -                                                                             -
 -                         MESSAGE PASSING PERFORMANCE                         -
 -                                                                             -
 -------------------------------------------------------------------------------

 ROUTINE             CALLS  TOT TIME [s]  AVE VOLUME [Bytes]  PERFORMANCE [MB/s]
 MP_Group                3         0.000
 MP_Bcast            17352         0.559             121273.             3762.35
 MP_Allreduce        74778        40.365                115.                0.21
 MP_Sync               388         0.011
 MP_Alltoall         51839       128.505             969541.              391.12
 MP_ISendRecv       143760         0.301             300000.           143094.05
 MP_Wait           1485392       187.483
 MP_comm_split         386         0.272
 MP_ISend           578285         2.062              26473.             7425.30
 MP_IRecv           578285         0.128              26325.           118886.13
 MP_Recv               589         0.095             164031.             1013.58
 MP_Memory          515298         0.104
 -------------------------------------------------------------------------------


 -------------------------------------------------------------------------------
 -                                                                             -
 -                           R E F E R E N C E S                               -
 -                                                                             -
 -------------------------------------------------------------------------------
 
 CP2K version 4.1, the CP2K developers group (2016).
 CP2K is freely available from https://www.cp2k.org/ .

 Schuett, Ole; Messmer, Peter; Hutter, Juerg; VandeVondele, Joost. 
 Electronic Structure Calculations on Graphics Processing Units, John Wiley & Sons, Ltd, 173-190 (2016). 
 GPU-Accelerated Sparse Matrix-Matrix Multiplication for Linear Scaling Density Functional Theory.
 http://dx.doi.org/10.1002/9781118670712.ch8


 Borstnik, U; VandeVondele, J; Weber, V; Hutter, J. 
 PARALLEL COMPUTING, 40 (5-6), 47-58 (2014). 
 Sparse matrix multiplication: The distributed block-compressed sparse
 row library.
 http://dx.doi.org/10.1016/j.parco.2014.03.012


 Hutter, J; Iannuzzi, M; Schiffmann, F; VandeVondele, J. 
 WILEY INTERDISCIPLINARY REVIEWS-COMPUTATIONAL MOLECULAR SCIENCE, 4 (1), 15-25 (2014). 
 CP2K: atomistic simulations of condensed matter systems.
 http://dx.doi.org/10.1002/wcms.1159


 VandeVondele, J; Hutter, J. 
 JOURNAL OF CHEMICAL PHYSICS, 127 (11), 114105 (2007). 
 Gaussian basis sets for accurate calculations on molecular systems in
 gas and condensed phases.
 http://dx.doi.org/10.1063/1.2770708


 Krack, M. 
 THEORETICAL CHEMISTRY ACCOUNTS, 114 (1-3), 145-152 (2005). 
 Pseudopotentials for H to Kr optimized for gradient-corrected
 exchange-correlation functionals.
 http://dx.doi.org/10.1007/s00214-005-0655-y


 VandeVondele, J; Krack, M; Mohamed, F; Parrinello, M; Chassaing, T;
 Hutter, J. COMPUTER PHYSICS COMMUNICATIONS, 167 (2), 103-128 (2005). 
 QUICKSTEP: Fast and accurate density functional calculations using a
 mixed Gaussian and plane waves approach.
 http://dx.doi.org/10.1016/j.cpc.2004.12.014


 Frigo, M; Johnson, SG. 
 PROCEEDINGS OF THE IEEE, 93 (2), 216-231 (2005). 
 The design and implementation of FFTW3.
 http://dx.doi.org/10.1109/JPROC.2004.840301


 Kolafa, J. 
 JOURNAL OF COMPUTATIONAL CHEMISTRY, 25 (3), 335-342 (2004). 
 Time-reversible always stable predictor-corrector method for molecular dynamics of polarizable molecules.
 http://dx.doi.org/10.1002/jcc.10385


 VandeVondele, J; Hutter, J. 
 JOURNAL OF CHEMICAL PHYSICS, 118 (10), 4365-4369 (2003). 
 An efficient orbital transformation method for electronic structure
 calculations.
 http://dx.doi.org/10.1063/1.1543154


 Hartwigsen, C; Goedecker, S; Hutter, J. 
 PHYSICAL REVIEW B, 58 (7), 3641-3662 (1998). 
 Relativistic separable dual-space Gaussian pseudopotentials from H to Rn.
 http://dx.doi.org/10.1103/PhysRevB.58.3641


 Lippert, G; Hutter, J; Parrinello, M. 
 MOLECULAR PHYSICS, 92 (3), 477-487 (1997). 
 A hybrid Gaussian and plane wave density functional scheme.
 http://dx.doi.org/10.1080/002689797170220


 Perdew, JP; Burke, K; Ernzerhof, M. 
 PHYSICAL REVIEW LETTERS, 77 (18), 3865-3868 (1996). 
 Generalized gradient approximation made simple.
 http://dx.doi.org/10.1103/PhysRevLett.77.3865


 Goedecker, S; Teter, M; Hutter, J. 
 PHYSICAL REVIEW B, 54 (3), 1703-1710 (1996). 
 Separable dual-space Gaussian pseudopotentials.
 http://dx.doi.org/10.1103/PhysRevB.54.1703


 -------------------------------------------------------------------------------
 -                                                                             -
 -                                T I M I N G                                  -
 -                                                                             -
 -------------------------------------------------------------------------------
 SUBROUTINE                       CALLS  ASD         SELF TIME        TOTAL TIME
                                MAXIMUM       AVERAGE  MAXIMUM  AVERAGE  MAXIMUM
 CP2K                                 1  1.0    0.021    0.029  711.199  711.201
 cp_geo_opt                           1  2.0    0.001    0.001  710.103  710.104
 geoopt_bfgs                          1  3.0    0.009    0.022  710.102  710.104
 cp_eval_at                          11  4.0    0.002    0.005  708.492  708.506
 qs_energies                         11  5.9    0.001    0.001  693.305  693.309
 qs_forces                           10  5.0    0.002    0.003  687.420  687.433
 scf_env_do_scf                      11  6.9    0.002    0.004  680.569  680.580
 scf_env_do_scf_inner_loop          289  8.0    0.019    0.036  662.184  662.254
 rebuild_ks_matrix                  299  9.9    0.003    0.004  354.519  354.709
 qs_ks_build_kohn_sham_matrix       299 10.9    0.080    0.100  354.517  354.706
 qs_ks_update_qs_env                303  9.0    0.014    0.019  342.652  342.839
 rs_pw_transfer                    2417 13.4    0.049    0.065  228.224  243.747
 qs_rho_update_rho                  300  9.0    0.009    0.019  204.251  204.375
 calculate_rho_elec                 600 10.0   34.636   43.504  204.242  204.371
 pw_transfer                       8090 13.7    0.780    1.047  187.978  201.255
 fft_wrap_pw1pw2                   7492 14.7    0.108    0.139  186.479  200.218
 fft_wrap_pw1pw2_200               6294 15.8   11.760   17.323  179.931  191.779
 fft3d_ps                          7492 16.7   64.227   83.932  157.767  179.112
 mp_waitall_1                   1462231 17.2  147.985  174.345  147.985  174.345
 sum_up_and_integrate               299 11.9    0.618    0.935  173.384  173.852
 integrate_v_rspace                 598 12.9   26.289   31.395  172.762  173.496
 qs_vxc_create                      299 11.9    0.012    0.018  161.889  162.655
 xc_vxc_pw_create                   299 12.9    2.196    2.979  161.877  162.647
 density_rs2pw                      600 11.0    0.019    0.022  149.365  161.332
 potential_pw2rs                    598 13.9    0.034    0.049  135.520  138.781
 qs_scf_new_mos                     289  9.0    0.001    0.003  137.267  137.377
 qs_scf_loop_do_ot                  289 10.0    0.001    0.001  137.266  137.375
 ot_scf_mini                        289 11.0    0.011    0.013  131.562  131.652
 mp_alltoall_z22v                  7492 18.7   82.140  125.714   82.140  125.714
 dbcsr_multiply_generic           12619 14.0    0.203    0.211  113.781  117.070
 xc_rho_set_and_dset_create         299 13.9    2.079    2.433   74.716   87.629
 rs_pw_transfer_PW2RS_70            598 15.9    8.941   12.883   73.753   81.256
 ot_mini                            289 12.0    0.002    0.003   80.764   80.934
 yz_to_x                           3603 17.4    3.575    5.260   55.806   76.399
 mp_waitany                       23161 15.4   43.694   73.692   43.694   73.692
 rs_pw_transfer_RS2PW_70            600 13.0    7.968   11.263   69.363   73.343
 qs_ot_get_derivative               578 13.0    0.004    0.005   69.840   70.136
 x_to_yz                           3889 18.0    7.615   10.186   37.523   57.064
 rs_pw_transfer_RS2PW_200           611 13.0   15.674   22.685   41.894   55.021
 rs_pw_transfer_PW2RS_200           608 15.8   17.881   21.958   43.165   45.598
 multiply_cannon                  12619 15.0    0.986    1.113   33.360   44.340
 make_m2s                         25238 15.0    0.206    0.211   38.352   43.956
 make_images                      25238 16.0    2.667    2.740   37.466   43.087
 qs_ot_get_p                        606 11.9    0.003    0.014   37.009   37.197
 qs_ot_get_derivative_taylor        227 14.0    0.005    0.005   36.006   36.276
 make_images_sizes                25238 17.0    0.016    0.017   28.098   34.556
 mp_alltoall_i44                  25238 18.0   28.082   34.539   28.082   34.539
 xc_functional_eval                 299 14.9    0.004    0.007   16.323   29.357
 pbe_lsd_eval                       299 15.9   16.318   29.355   16.318   29.355
 mp_alltoall_d11v                  9419 15.7   13.686   26.686   13.686   26.686
 mp_sum_l                         22622 15.3   21.251   26.563   21.251   26.563
 rs_distribute_matrix              1218 12.4    0.097    0.316   12.783   25.291
 mp_sum_b                         22596 15.3   19.691   23.695   19.691   23.695
 rs_grid_zero                      1819 12.9   20.110   22.137   20.110   22.137
 mp_allgather_i34                 12619 16.0   13.500   20.264   13.500   20.264
 init_scf_loop                       14  7.9    0.001    0.002   18.220   18.241
 make_images_data                 25238 17.0    0.132    0.144    5.942   17.750
 qs_ot_p2m_diag                     376 12.9    0.182    0.214   17.564   17.643
 mp_sum_d                         18528 14.7   12.385   16.991   12.385   16.991
 multiply_cannon_metrocomm3      138809 16.0    0.099    0.106    8.594   16.973
 qs_ot_get_derivative_diag          351 13.9    0.008    0.008   16.211   16.288
 cp_fm_syevd                        386 14.7   13.582   14.535   14.849   14.979
 cp_dbcsr_syevd                     376 13.9    0.037    0.041   14.394   14.441
 -------------------------------------------------------------------------------

 The number of warnings for this run is : 1
 
 -------------------------------------------------------------------------------
  **** **** ******  **  PROGRAM ENDED AT                 2023-03-25 19:11:05.880
 ***** ** ***  *** **   PROGRAM RAN ON            node132.pri.kelvin2.alces.netw
 **    ****   ******    PROGRAM RAN BY                                  40265864
 ***** **    ** ** **   PROGRAM PROCESS ID                                125545
  **** **  *******  **  PROGRAM STOPPED IN /mnt/scratch2/users/40265864/MSc_ML_M
                                           M/ln_replacements/xyz/Dy_L9_L2/geomet
                                           ry_optimisation/run-0
