 DBCSR| Multiplication driver                                               XSMM
 DBCSR| Multrec recursion limit                                              512
 DBCSR| Multiplication stack size                                           1000
 DBCSR| Maximum elements for images                                    UNLIMITED
 DBCSR| Multiplicative factor virtual images                                   1
 DBCSR| Randmat seed                                                    12341313
 DBCSR| Multiplication size stacks                                             3
 DBCSR| Number of 3D layers                                               SINGLE
 DBCSR| Use MPI memory allocation                                              T
 DBCSR| Use RMA algorithm                                                      F
 DBCSR| Use Communication thread                                               T
 DBCSR| Communication thread load                                             87


  **** **** ******  **  PROGRAM STARTED AT               2023-03-23 11:09:01.172
 ***** ** ***  *** **   PROGRAM STARTED ON        node121.pri.kelvin2.alces.netw
 **    ****   ******    PROGRAM STARTED BY                              40265864
 ***** **    ** ** **   PROGRAM PROCESS ID                                 17162
  **** **  *******  **  PROGRAM STARTED IN /mnt/scratch2/users/40265864/MSc_ML_M
                                           M/ln_replacements/xyz/Gd_L6_O_O_O_O/p
                                           relim_energy/run-2

 CP2K| version string:                                          CP2K version 4.1
 CP2K| source code revision number:                                    svn:17462
 CP2K| cp2kflags: libint fftw3 libxc parallel mpi3 scalapack libxsmm libderiv_ma
 CP2K|            x_am1=5 libint_max_am=6
 CP2K| is freely available from                            https://www.cp2k.org/
 CP2K| Program compiled at                          Mon 24 Oct 18:14:20 BST 2022
 CP2K| Program compiled on                      login1.pri.kelvin2.alces.network
 CP2K| Program compiled for                                                local
 CP2K| Data directory path                      /users/40265864/source/cp2k/data
 CP2K| Input file name                                       geo-opt-restart.inp

 GLOBAL| Force Environment number                                              1
 GLOBAL| Basis set file name                                 ../BASIS_MOLOPT_UCL
 GLOBAL| Potential file name                                        ../POTENTIAL
 GLOBAL| MM Potential file name                                     MM_POTENTIAL
 GLOBAL| Coordinate file name                            ../../Gd_L6_O_O_O_O.xyz
 GLOBAL| Method name                                                        CP2K
 GLOBAL| Project name                                              Gd_L6_O_O_O_O
 GLOBAL| Preferred FFT library                                             FFTW3
 GLOBAL| Preferred diagonalization lib.                                       SL
 GLOBAL| Run type                                                   ENERGY_FORCE
 GLOBAL| All-to-all communication in single precision                          F
 GLOBAL| FFTs using library dependent lengths                                  F
 GLOBAL| Global print level                                                  LOW
 GLOBAL| Total number of message passing processes                           121
 GLOBAL| Number of threads for this process                                    1
 GLOBAL| This output is from process                                           0
 GLOBAL| CPU model name :  AMD EPYC 7702 64-Core Processor

 MEMORY| system memory details [Kb]
 MEMORY|                        rank 0           min           max       average
 MEMORY| MemTotal            792056644     792056644     792056644     792056644
 MEMORY| MemFree             776087788     776087168     776087788     776087782
 MEMORY| Buffers                 99544         99544         99544         99544
 MEMORY| Cached                1171200       1171200       1171200       1171200
 MEMORY| Slab                  1333676       1333676       1333676       1333676
 MEMORY| SReclaimable           363704        363704        363704        363704
 MEMORY| MemLikelyFree       777722236     777721616     777722236     777722230


 GENERATE|  Preliminary Number of Bonds generated:                             0
 GENERATE|  Achieved consistency in connectivity generation.

 *******************************************************************************
 *******************************************************************************
 **                                                                           **
 **     #####                         ##              ##                      **
 **    ##   ##            ##          ##              ##                      **
 **   ##     ##                       ##            ######                    **
 **   ##     ##  ##   ##  ##   #####  ##  ##   ####   ##    #####    #####    **
 **   ##     ##  ##   ##  ##  ##      ## ##   ##      ##   ##   ##  ##   ##   **
 **   ##  ## ##  ##   ##  ##  ##      ####     ###    ##   ######   ######    **
 **    ##  ###   ##   ##  ##  ##      ## ##      ##   ##   ##       ##        **
 **     #######   #####   ##   #####  ##  ##  ####    ##    #####   ##        **
 **           ##                                                    ##        **
 **                                                                           **
 **                                                ... make the atoms dance   **
 **                                                                           **
 **            Copyright (C) by CP2K developers group (2000 - 2016)           **
 **                                                                           **
 *******************************************************************************


 SCF PARAMETERS         Density guess:                                   RESTART
                        --------------------------------------------------------
                        max_scf:                                              50
                        max_scf_history:                                       0
                        max_diis:                                              4
                        --------------------------------------------------------
                        eps_scf:                                        1.00E-06
                        eps_scf_history:                                0.00E+00
                        eps_diis:                                       1.00E-01
                        eps_eigval:                                     1.00E-05
                        --------------------------------------------------------
                        level_shift [a.u.]:                                 0.00
                        --------------------------------------------------------
                        Outer loop SCF in use 
                        No variables optimised in outer loop
                        eps_scf                                         1.00E-06
                        max_scf                                               20
                        No outer loop optimization
                        step_size                                       5.00E-01

 Spin 1

 Number of electrons:                                                        524
 Number of occupied orbitals:                                                524
 Number of molecular orbitals:                                               524

 Spin 2

 Number of electrons:                                                        523
 Number of occupied orbitals:                                                523
 Number of molecular orbitals:                                               523

 Number of orbital functions:                                               3702
 Number of independent orbital functions:                                   3702

 Extrapolation method: initial_guess


 SCF WAVEFUNCTION OPTIMIZATION

  ----------------------------------- OT ---------------------------------------
  Minimizer      : DIIS                : direct inversion
                                         in the iterative subspace
                                         using   7 DIIS vectors
                                         safer DIIS on
  Preconditioner : FULL_KINETIC        : inversion of T + eS
  Precond_solver : DEFAULT
  stepsize       :    0.15000000                  energy_gap     :    0.20000000
  eps_taylor     :   0.10000E-15                  max_taylor     :             4
  ----------------------------------- OT ---------------------------------------

  Step     Update method      Time    Convergence         Total energy    Change
  ------------------------------------------------------------------------------
     1 OT DIIS     0.15E+00   11.7     0.00001997     -1527.1859257209 -1.53E+03
     2 OT SD       0.15E+00   16.0     0.00001999     -1527.1861576751 -2.32E-04
     3 OT SD       0.15E+00   16.2     0.00002001     -1527.1863900884 -2.32E-04
     4 OT SD       0.15E+00   16.3     0.00002003     -1527.1866230157 -2.33E-04
     5 OT SD       0.15E+00   22.3     0.00002006     -1527.1868564917 -2.33E-04
     6 OT SD       0.15E+00   16.6     0.00002008     -1527.1870905411 -2.34E-04
     7 OT SD       0.15E+00   16.8     0.00002011     -1527.1873251829 -2.35E-04
     8 OT SD       0.15E+00   16.1     0.00002014     -1527.1875604330 -2.35E-04
     9 OT SD       0.15E+00   16.5     0.00002016     -1527.1877963049 -2.36E-04
    10 OT SD       0.15E+00   19.6     0.00002019     -1527.1880328108 -2.37E-04
    11 OT SD       0.15E+00   16.2     0.00002022     -1527.1882699617 -2.37E-04
    12 OT SD       0.15E+00   16.4     0.00002025     -1527.1885077681 -2.38E-04
    13 OT SD       0.15E+00   15.8     0.00002027     -1527.1887462397 -2.38E-04
    14 OT SD       0.15E+00   19.2     0.00002030     -1527.1889853858 -2.39E-04
    15 OT SD       0.15E+00   16.5     0.00002033     -1527.1892252156 -2.40E-04
    16 OT SD       0.15E+00   16.1     0.00002036     -1527.1894657378 -2.41E-04
    17 OT SD       0.15E+00   17.1     0.00002039     -1527.1897069609 -2.41E-04
    18 OT SD       0.15E+00   15.9     0.00002042     -1527.1899488935 -2.42E-04
    19 OT SD       0.15E+00   16.2     0.00002045     -1527.1901915436 -2.43E-04
    20 OT SD       0.15E+00   17.9     0.00002048     -1527.1904349196 -2.43E-04
    21 OT SD       0.15E+00   23.2     0.00002051     -1527.1906790295 -2.44E-04
    22 OT SD       0.15E+00   22.3     0.00002055     -1527.1909238811 -2.45E-04
    23 OT SD       0.15E+00   16.8     0.00002058     -1527.1911694824 -2.46E-04
    24 OT SD       0.15E+00   22.2     0.00002061     -1527.1914158412 -2.46E-04
    25 OT SD       0.15E+00   23.0     0.00002064     -1527.1916629652 -2.47E-04
    26 OT SD       0.15E+00   16.1     0.00002067     -1527.1919108621 -2.48E-04
    27 OT SD       0.15E+00   16.7     0.00002071     -1527.1921595394 -2.49E-04
    28 OT SD       0.15E+00   16.1     0.00002074     -1527.1924090049 -2.49E-04
    29 OT SD       0.15E+00   16.3     0.00002077     -1527.1926592659 -2.50E-04
    30 OT SD       0.15E+00   18.3     0.00002081     -1527.1929103300 -2.51E-04
    31 OT SD       0.15E+00   16.1     0.00002084     -1527.1931622046 -2.52E-04
    32 OT SD       0.15E+00   16.5     0.00002087     -1527.1934148970 -2.53E-04
    33 OT SD       0.15E+00   16.3     0.00002091     -1527.1936684147 -2.54E-04
    34 OT SD       0.15E+00   16.2     0.00002094     -1527.1939227649 -2.54E-04
    35 OT SD       0.15E+00   16.3     0.00002098     -1527.1941779548 -2.55E-04
    36 OT SD       0.15E+00   16.6     0.00002101     -1527.1944339917 -2.56E-04
    37 OT SD       0.15E+00   16.9     0.00002105     -1527.1946908828 -2.57E-04
    38 OT SD       0.15E+00   16.4     0.00002108     -1527.1949486352 -2.58E-04
    39 OT SD       0.15E+00   16.6     0.00002112     -1527.1952072561 -2.59E-04
    40 OT SD       0.15E+00   16.2     0.00002115     -1527.1954667525 -2.59E-04
    41 OT SD       0.15E+00   16.2     0.00002119     -1527.1957271315 -2.60E-04
    42 OT SD       0.15E+00   17.3     0.00002123     -1527.1959884001 -2.61E-04
    43 OT SD       0.15E+00   22.5     0.00002126     -1527.1962505652 -2.62E-04
    44 OT SD       0.15E+00   17.0     0.00002130     -1527.1965136339 -2.63E-04
    45 OT SD       0.15E+00   23.6     0.00002134     -1527.1967776130 -2.64E-04
    46 OT SD       0.15E+00   16.7     0.00002137     -1527.1970425095 -2.65E-04
    47 OT SD       0.15E+00   23.1     0.00002141     -1527.1973083301 -2.66E-04
    48 OT SD       0.15E+00   24.3     0.00002145     -1527.1975750818 -2.67E-04
    49 OT SD       0.15E+00   23.6     0.00002149     -1527.1978427712 -2.68E-04
    50 OT SD       0.15E+00   24.6     0.00002152     -1527.1981114053 -2.69E-04

  Leaving inner SCF loop after reaching    50 steps.


  Electronic density on regular grids:      -1046.9999999719        0.0000000281
  Core density on regular grids:             1049.9999999271       -0.0000000729
  Total charge density on r-space grids:        2.9999999552
  Total charge density g-space grids:           2.9999999552

  Overlap energy of the core charge distribution:               0.00009108160821
  Self energy of the core charge distribution:              -3603.95462265793367
  Core Hamiltonian energy:                                   1131.02824743641622
  Hartree energy:                                            1410.35435837178920
  Exchange-correlation energy:                               -464.62618563713067

  Total energy:                                             -1527.19811140525053

  outer SCF iter =    1 RMS gradient =   0.22E-04 energy =      -1527.1981114053

  ----------------------------------- OT ---------------------------------------
  Minimizer      : DIIS                : direct inversion
                                         in the iterative subspace
                                         using   7 DIIS vectors
                                         safer DIIS on
  Preconditioner : FULL_KINETIC        : inversion of T + eS
  Precond_solver : DEFAULT
  stepsize       :    0.15000000                  energy_gap     :    0.20000000
  eps_taylor     :   0.10000E-15                  max_taylor     :             4
  ----------------------------------- OT ---------------------------------------

  Step     Update method      Time    Convergence         Total energy    Change
  ------------------------------------------------------------------------------
     1 OT DIIS     0.15E+00   55.1     0.00002165     -1527.1983809906 -2.70E-04
     2 OT SD       0.15E+00   22.8     0.00002167     -1527.1986535326 -2.73E-04
     3 OT SD       0.15E+00   23.6     0.00002170     -1527.1989267222 -2.73E-04
     4 OT SD       0.15E+00   23.1     0.00002173     -1527.1992006550 -2.74E-04
     5 OT SD       0.15E+00   24.7     0.00002176     -1527.1994753866 -2.75E-04
     6 OT SD       0.15E+00   25.0     0.00002180     -1527.1997509535 -2.76E-04
     7 OT SD       0.15E+00   23.8     0.00002183     -1527.2000273814 -2.76E-04
     8 OT SD       0.15E+00   24.3     0.00002187     -1527.2003046899 -2.77E-04
     9 OT SD       0.15E+00   16.5     0.00002190     -1527.2005828947 -2.78E-04
    10 OT SD       0.15E+00   16.3     0.00002194     -1527.2008620087 -2.79E-04
    11 OT SD       0.15E+00   15.7     0.00002197     -1527.2011420433 -2.80E-04
    12 OT SD       0.15E+00   16.4     0.00002201     -1527.2014230085 -2.81E-04
    13 OT SD       0.15E+00   16.3     0.00002205     -1527.2017049134 -2.82E-04
    14 OT SD       0.15E+00   18.5     0.00002208     -1527.2019877662 -2.83E-04
    15 OT SD       0.15E+00   16.1     0.00002212     -1527.2022715750 -2.84E-04
    16 OT SD       0.15E+00   17.4     0.00002216     -1527.2025563473 -2.85E-04
    17 OT SD       0.15E+00   16.3     0.00002220     -1527.2028420902 -2.86E-04
    18 OT SD       0.15E+00   16.3     0.00002224     -1527.2031288106 -2.87E-04
    19 OT SD       0.15E+00   16.5     0.00002227     -1527.2034165154 -2.88E-04
    20 OT SD       0.15E+00   19.3     0.00002231     -1527.2037052110 -2.89E-04
    21 OT SD       0.15E+00   16.7     0.00002235     -1527.2039949040 -2.90E-04
    22 OT SD       0.15E+00   19.0     0.00002239     -1527.2042856005 -2.91E-04
    23 OT SD       0.15E+00   16.2     0.00002243     -1527.2045773068 -2.92E-04
    24 OT SD       0.15E+00   15.9     0.00002247     -1527.2048700290 -2.93E-04
    25 OT SD       0.15E+00   16.4     0.00002251     -1527.2051637730 -2.94E-04
    26 OT SD       0.15E+00   15.9     0.00002255     -1527.2054585448 -2.95E-04
    27 OT SD       0.15E+00   21.7     0.00002259     -1527.2057543502 -2.96E-04
    28 OT SD       0.15E+00   17.0     0.00002263     -1527.2060511948 -2.97E-04
    29 OT SD       0.15E+00   15.8     0.00002267     -1527.2063490844 -2.98E-04
    30 OT SD       0.15E+00   15.9     0.00002271     -1527.2066480246 -2.99E-04
    31 OT SD       0.15E+00   15.6     0.00002275     -1527.2069480208 -3.00E-04
    32 OT SD       0.15E+00   16.1     0.00002279     -1527.2072490785 -3.01E-04
    33 OT SD       0.15E+00   15.8     0.00002283     -1527.2075512031 -3.02E-04
    34 OT SD       0.15E+00   15.9     0.00002287     -1527.2078543999 -3.03E-04
    35 OT SD       0.15E+00   15.9     0.00002291     -1527.2081586741 -3.04E-04
    36 OT SD       0.15E+00   15.8     0.00002295     -1527.2084640309 -3.05E-04
    37 OT SD       0.15E+00   22.3     0.00002299     -1527.2087704752 -3.06E-04
    38 OT SD       0.15E+00   16.1     0.00002303     -1527.2090780123 -3.08E-04
    39 OT SD       0.15E+00   16.5     0.00002307     -1527.2093866469 -3.09E-04
    40 OT SD       0.15E+00   16.3     0.00002311     -1527.2096963840 -3.10E-04
    41 OT SD       0.15E+00   15.8     0.00002315     -1527.2100072284 -3.11E-04
    42 OT SD       0.15E+00   16.2     0.00002319     -1527.2103191846 -3.12E-04
    43 OT SD       0.15E+00   18.2     0.00002324     -1527.2106322575 -3.13E-04
    44 OT SD       0.15E+00   16.4     0.00002328     -1527.2109464515 -3.14E-04
    45 OT SD       0.15E+00   16.0     0.00002332     -1527.2112617711 -3.15E-04
    46 OT SD       0.15E+00   16.2     0.00002336     -1527.2115782208 -3.16E-04
    47 OT SD       0.15E+00   16.1     0.00002340     -1527.2118958047 -3.18E-04
    48 OT SD       0.15E+00   17.9     0.00002345     -1527.2122145272 -3.19E-04
    49 OT SD       0.15E+00   20.8     0.00002349     -1527.2125343923 -3.20E-04
    50 OT SD       0.15E+00   16.0     0.00002353     -1527.2128554041 -3.21E-04

  Leaving inner SCF loop after reaching    50 steps.


  Electronic density on regular grids:      -1046.9999999720        0.0000000280
  Core density on regular grids:             1049.9999999271       -0.0000000729
  Total charge density on r-space grids:        2.9999999551
  Total charge density g-space grids:           2.9999999551

  Overlap energy of the core charge distribution:               0.00009108160821
  Self energy of the core charge distribution:              -3603.95462265793367
  Core Hamiltonian energy:                                   1131.04868649236164
  Hartree energy:                                            1410.33485210416893
  Exchange-correlation energy:                               -464.64186242430912

  Total energy:                                             -1527.21285540410395

  outer SCF iter =    2 RMS gradient =   0.24E-04 energy =      -1527.2128554041

  ----------------------------------- OT ---------------------------------------
  Minimizer      : DIIS                : direct inversion
                                         in the iterative subspace
                                         using   7 DIIS vectors
                                         safer DIIS on
  Preconditioner : FULL_KINETIC        : inversion of T + eS
  Precond_solver : DEFAULT
  stepsize       :    0.15000000                  energy_gap     :    0.20000000
  eps_taylor     :   0.10000E-15                  max_taylor     :             4
  ----------------------------------- OT ---------------------------------------

  Step     Update method      Time    Convergence         Total energy    Change
  ------------------------------------------------------------------------------
     1 OT DIIS     0.15E+00   39.1     0.00002376     -1527.2131775666 -3.22E-04
     2 OT SD       0.15E+00   16.2     0.00002379     -1527.2135060573 -3.28E-04
     3 OT SD       0.15E+00   16.2     0.00002381     -1527.2138351943 -3.29E-04
     4 OT SD       0.15E+00   16.5     0.00002385     -1527.2141651283 -3.30E-04
     5 OT SD       0.15E+00   16.4     0.00002388     -1527.2144959434 -3.31E-04
     6 OT SD       0.15E+00   16.4     0.00002391     -1527.2148276918 -3.32E-04
     7 OT SD       0.15E+00   22.6     0.00002395     -1527.2151604079 -3.33E-04
     8 OT SD       0.15E+00   17.0     0.00002398     -1527.2154941166 -3.34E-04
     9 OT SD       0.15E+00   16.0     0.00002402     -1527.2158288360 -3.35E-04
    10 OT SD       0.15E+00   16.1     0.00002406     -1527.2161645800 -3.36E-04
    11 OT SD       0.15E+00   16.2     0.00002410     -1527.2165013598 -3.37E-04
    12 OT SD       0.15E+00   17.0     0.00002413     -1527.2168391844 -3.38E-04
    13 OT SD       0.15E+00   20.9     0.00002417     -1527.2171780612 -3.39E-04
    14 OT SD       0.15E+00   15.9     0.00002421     -1527.2175179968 -3.40E-04
    15 OT SD       0.15E+00   15.9     0.00002425     -1527.2178589965 -3.41E-04
    16 OT SD       0.15E+00   23.1     0.00002428     -1527.2182010652 -3.42E-04
    17 OT SD       0.15E+00   23.6     0.00002432     -1527.2185442073 -3.43E-04
    18 OT SD       0.15E+00   24.8     0.00002436     -1527.2188884264 -3.44E-04
    19 OT SD       0.15E+00   24.6     0.00002440     -1527.2192337261 -3.45E-04
    20 OT SD       0.15E+00   23.9     0.00002444     -1527.2195801094 -3.46E-04
    21 OT SD       0.15E+00   15.7     0.00002448     -1527.2199275790 -3.47E-04
    22 OT SD       0.15E+00   15.9     0.00002451     -1527.2202761374 -3.49E-04
    23 OT SD       0.15E+00   16.1     0.00002455     -1527.2206257867 -3.50E-04
    24 OT SD       0.15E+00   16.1     0.00002459     -1527.2209765288 -3.51E-04
    25 OT SD       0.15E+00   16.3     0.00002463     -1527.2213283655 -3.52E-04
    26 OT SD       0.15E+00   16.3     0.00002467     -1527.2216812982 -3.53E-04
    27 OT SD       0.15E+00   16.1     0.00002471     -1527.2220353281 -3.54E-04
    28 OT SD       0.15E+00   16.0     0.00002474     -1527.2223904560 -3.55E-04
    29 OT SD       0.15E+00   16.1     0.00002478     -1527.2227466829 -3.56E-04
    30 OT SD       0.15E+00   16.1     0.00002482     -1527.2231040091 -3.57E-04
    31 OT DIIS     0.15E+00   15.9     0.00002486     -1527.2234624350 -3.58E-04
    32 OT DIIS     0.15E+00   23.3     0.00003798     -1527.2187935480  4.67E-03
    33 OT SD       0.15E+00   18.3     0.00003642     -1527.2282619333 -9.47E-03
    34 OT SD       0.15E+00   15.9     0.00003390     -1527.2290025320 -7.41E-04
    35 OT SD       0.15E+00   15.8     0.00003255     -1527.2296556088 -6.53E-04
    36 OT SD       0.15E+00   19.2     0.00003176     -1527.2302633469 -6.08E-04
    37 OT SD       0.15E+00   15.9     0.00003126     -1527.2308447232 -5.81E-04
    38 OT DIIS     0.15E+00   24.0     0.00003092     -1527.2314094513 -5.65E-04
    39 OT DIIS     0.15E+00   20.4     0.00002868     -1527.2479099020 -1.65E-02
    40 OT DIIS     0.15E+00   25.2     0.00002831     -1527.2516697972 -3.76E-03
    41 OT DIIS     0.15E+00   25.4     0.00002794     -1527.2533726631 -1.70E-03
    42 OT DIIS     0.15E+00   16.3     0.00002768     -1527.2550536102 -1.68E-03
    43 OT DIIS     0.15E+00   15.9     0.00002731     -1527.2579152873 -2.86E-03
    44 OT DIIS     0.15E+00   25.6     0.00002719     -1527.2588955113 -9.80E-04
    45 OT DIIS     0.15E+00   16.9     0.00002688     -1527.2626249107 -3.73E-03
    46 OT DIIS     0.15E+00   15.9     0.00002676     -1527.2640764657 -1.45E-03
    47 OT DIIS     0.15E+00   16.1     0.00002616     -1527.2716885524 -7.61E-03
    48 OT DIIS     0.15E+00   16.0     0.00002582     -1527.2757747651 -4.09E-03
    49 OT DIIS     0.15E+00   16.0     0.00002564     -1527.2774197087 -1.64E-03
    50 OT DIIS     0.15E+00   15.9     0.00002528     -1527.2814047878 -3.99E-03

  Leaving inner SCF loop after reaching    50 steps.


  Electronic density on regular grids:      -1046.9999966485        0.0000033515
  Core density on regular grids:             1049.9999999271       -0.0000000729
  Total charge density on r-space grids:        3.0000032786
  Total charge density g-space grids:           3.0000032786

  Overlap energy of the core charge distribution:               0.00009108160821
  Self energy of the core charge distribution:              -3603.95462265793367
  Core Hamiltonian energy:                                   1131.13789319302941
  Hartree energy:                                            1410.25592795151624
  Exchange-correlation energy:                               -464.72069435604527

  Total energy:                                             -1527.28140478782507

  outer SCF iter =    3 RMS gradient =   0.25E-04 energy =      -1527.2814047878

  ----------------------------------- OT ---------------------------------------
  Minimizer      : DIIS                : direct inversion
                                         in the iterative subspace
                                         using   7 DIIS vectors
                                         safer DIIS on
  Preconditioner : FULL_KINETIC        : inversion of T + eS
  Precond_solver : DEFAULT
  stepsize       :    0.15000000                  energy_gap     :    0.20000000
  eps_taylor     :   0.10000E-15                  max_taylor     :             4
  ----------------------------------- OT ---------------------------------------

  Step     Update method      Time    Convergence         Total energy    Change
  ------------------------------------------------------------------------------
     1 OT DIIS     0.15E+00   32.3     0.00002697     -1527.2839341697 -2.53E-03
     2 OT DIIS     0.15E+00   21.8     0.00002658     -1527.2843562164 -4.22E-04
     3 OT DIIS     0.15E+00   22.9     0.00002566     -1527.2864373754 -2.08E-03
     4 OT DIIS     0.15E+00   23.2     0.00002523     -1527.2889418657 -2.50E-03
     5 OT DIIS     0.15E+00   16.6     0.00002439     -1527.2952353742 -6.29E-03
     6 OT DIIS     0.15E+00   16.0     0.00002328     -1527.3025753121 -7.34E-03
     7 OT DIIS     0.15E+00   24.3     0.00002039     -1527.3162723622 -1.37E-02
     8 OT DIIS     0.15E+00   17.0     0.00001726     -1527.3242779040 -8.01E-03
     9 OT SD       0.15E+00   16.1     0.00001648     -1527.3317532964 -7.48E-03
    10 OT DIIS     0.15E+00   16.1     0.00001473     -1527.3319017304 -1.48E-04
    11 OT DIIS     0.15E+00   16.7     0.00001733     -1527.3316860047  2.16E-04
    12 OT DIIS     0.15E+00   16.4     0.00001529     -1527.3322670317 -5.81E-04
    13 OT DIIS     0.15E+00   23.9     0.00001173     -1527.3335744941 -1.31E-03
    14 OT DIIS     0.15E+00   16.7     0.00001068     -1527.3348297812 -1.26E-03
    15 OT DIIS     0.15E+00   15.9     0.00001008     -1527.3353416884 -5.12E-04
    16 OT DIIS     0.15E+00   16.0     0.00000950     -1527.3361059255 -7.64E-04
    17 OT DIIS     0.15E+00   16.1     0.00000869     -1527.3367055239 -6.00E-04
    18 OT DIIS     0.15E+00   16.0     0.00000818     -1527.3371811710 -4.76E-04
    19 OT DIIS     0.15E+00   15.9     0.00000736     -1527.3378795964 -6.98E-04
    20 OT DIIS     0.15E+00   24.3     0.00000702     -1527.3382901418 -4.11E-04
    21 OT DIIS     0.15E+00   16.6     0.00000677     -1527.3386190589 -3.29E-04
    22 OT DIIS     0.15E+00   15.9     0.00000601     -1527.3392605455 -6.41E-04
    23 OT DIIS     0.15E+00   24.8     0.00000568     -1527.3395806769 -3.20E-04
    24 OT DIIS     0.15E+00   25.6     0.00000541     -1527.3397796505 -1.99E-04
    25 OT DIIS     0.15E+00   16.0     0.00000527     -1527.3398441328 -6.45E-05
    26 OT DIIS     0.15E+00   17.5     0.00000503     -1527.3400154434 -1.71E-04
    27 OT DIIS     0.15E+00   24.4     0.00000490     -1527.3401474746 -1.32E-04
    28 OT DIIS     0.15E+00   16.2     0.00000457     -1527.3405650496 -4.18E-04
    29 OT DIIS     0.15E+00   16.0     0.00000446     -1527.3407594402 -1.94E-04
    30 OT DIIS     0.15E+00   25.2     0.00000436     -1527.3409632028 -2.04E-04
    31 OT DIIS     0.15E+00   24.7     0.00000430     -1527.3410176802 -5.45E-05
    32 OT DIIS     0.15E+00   25.3     0.00000426     -1527.3410507741 -3.31E-05
    33 OT DIIS     0.15E+00   16.8     0.00000410     -1527.3412591468 -2.08E-04
    34 OT DIIS     0.15E+00   15.9     0.00000397     -1527.3414676219 -2.08E-04
    35 OT DIIS     0.15E+00   15.9     0.00000389     -1527.3415861050 -1.18E-04
    36 OT DIIS     0.15E+00   24.6     0.00000386     -1527.3416651467 -7.90E-05
    37 OT DIIS     0.15E+00   24.6     0.00000382     -1527.3417456774 -8.05E-05
    38 OT DIIS     0.15E+00   24.7     0.00000376     -1527.3419294136 -1.84E-04
    39 OT DIIS     0.15E+00   24.5     0.00000373     -1527.3420540606 -1.25E-04
    40 OT DIIS     0.15E+00   25.0     0.00000366     -1527.3423332544 -2.79E-04
    41 OT DIIS     0.15E+00   24.9     0.00000359     -1527.3426157809 -2.83E-04
    42 OT DIIS     0.15E+00   24.9     0.00000353     -1527.3429143359 -2.99E-04
    43 OT DIIS     0.15E+00   24.8     0.00000349     -1527.3430502433 -1.36E-04
    44 OT DIIS     0.15E+00   19.2     0.00000343     -1527.3432517359 -2.01E-04
    45 OT DIIS     0.15E+00   18.8     0.00000340     -1527.3433790595 -1.27E-04
    46 OT DIIS     0.15E+00   16.4     0.00000331     -1527.3436938469 -3.15E-04
    47 OT DIIS     0.15E+00   15.9     0.00000327     -1527.3438746534 -1.81E-04
    48 OT DIIS     0.15E+00   16.1     0.00000323     -1527.3439933766 -1.19E-04
    49 OT DIIS     0.15E+00   16.2     0.00000320     -1527.3441307344 -1.37E-04
    50 OT DIIS     0.15E+00   16.1     0.00000317     -1527.3442439404 -1.13E-04

  Leaving inner SCF loop after reaching    50 steps.


  Electronic density on regular grids:      -1046.9999999713        0.0000000287
  Core density on regular grids:             1049.9999999271       -0.0000000729
  Total charge density on r-space grids:        2.9999999558
  Total charge density g-space grids:           2.9999999558

  Overlap energy of the core charge distribution:               0.00009108160821
  Self energy of the core charge distribution:              -3603.95462265793367
  Core Hamiltonian energy:                                   1131.14621211812482
  Hartree energy:                                            1410.25133721577890
  Exchange-correlation energy:                               -464.78726169795971

  Total energy:                                             -1527.34424394038115

  outer SCF iter =    4 RMS gradient =   0.32E-05 energy =      -1527.3442439404

  ----------------------------------- OT ---------------------------------------
  Minimizer      : DIIS                : direct inversion
                                         in the iterative subspace
                                         using   7 DIIS vectors
                                         safer DIIS on
  Preconditioner : FULL_KINETIC        : inversion of T + eS
  Precond_solver : DEFAULT
  stepsize       :    0.15000000                  energy_gap     :    0.20000000
  eps_taylor     :   0.10000E-15                  max_taylor     :             4
  ----------------------------------- OT ---------------------------------------

  Step     Update method      Time    Convergence         Total energy    Change
  ------------------------------------------------------------------------------
     1 OT DIIS     0.15E+00   36.5     0.00000343     -1527.3442994746 -5.55E-05
     2 OT DIIS     0.15E+00   16.3     0.00000340     -1527.3443062926 -6.82E-06
     3 OT DIIS     0.15E+00   16.2     0.00000329     -1527.3443516775 -4.54E-05
     4 OT DIIS     0.15E+00   15.9     0.00000326     -1527.3444003168 -4.86E-05
     5 OT DIIS     0.15E+00   15.9     0.00000324     -1527.3444551135 -5.48E-05
     6 OT DIIS     0.15E+00   18.0     0.00000323     -1527.3445322493 -7.71E-05
     7 OT DIIS     0.15E+00   16.3     0.00000319     -1527.3446746552 -1.42E-04
     8 OT DIIS     0.15E+00   16.0     0.00000313     -1527.3449726919 -2.98E-04
     9 OT DIIS     0.15E+00   22.1     0.00000308     -1527.3452334199 -2.61E-04
    10 OT DIIS     0.15E+00   22.9     0.00000300     -1527.3455775864 -3.44E-04
    11 OT DIIS     0.15E+00   21.9     0.00000291     -1527.3459130683 -3.35E-04
    12 OT DIIS     0.15E+00   15.9     0.00000283     -1527.3462031551 -2.90E-04
    13 OT DIIS     0.15E+00   16.0     0.00000277     -1527.3464148121 -2.12E-04
    14 OT DIIS     0.15E+00   16.0     0.00000270     -1527.3466070101 -1.92E-04
    15 OT DIIS     0.15E+00   16.0     0.00000265     -1527.3467600991 -1.53E-04
    16 OT DIIS     0.15E+00   16.0     0.00000257     -1527.3469821825 -2.22E-04
    17 OT DIIS     0.15E+00   16.0     0.00000252     -1527.3471393313 -1.57E-04
    18 OT DIIS     0.15E+00   16.5     0.00000246     -1527.3473631784 -2.24E-04
    19 OT DIIS     0.15E+00   17.7     0.00000237     -1527.3475639349 -2.01E-04
    20 OT DIIS     0.15E+00   16.0     0.00000234     -1527.3476744463 -1.11E-04
    21 OT DIIS     0.15E+00   15.8     0.00000227     -1527.3478263977 -1.52E-04
    22 OT DIIS     0.15E+00   16.0     0.00000223     -1527.3479345940 -1.08E-04
    23 OT DIIS     0.15E+00   21.7     0.00000215     -1527.3480772283 -1.43E-04
    24 OT DIIS     0.15E+00   16.0     0.00000208     -1527.3482285390 -1.51E-04
    25 OT DIIS     0.15E+00   16.7     0.00000203     -1527.3482574986 -2.90E-05
    26 OT DIIS     0.15E+00   17.4     0.00000196     -1527.3483702472 -1.13E-04
    27 OT DIIS     0.15E+00   16.2     0.00000186     -1527.3484553366 -8.51E-05
    28 OT DIIS     0.15E+00   16.4     0.00000182     -1527.3485223724 -6.70E-05
    29 OT DIIS     0.15E+00   16.4     0.00000176     -1527.3485868989 -6.45E-05
    30 OT DIIS     0.15E+00   16.1     0.00000172     -1527.3486466765 -5.98E-05
    31 OT DIIS     0.15E+00   17.0     0.00000167     -1527.3487516076 -1.05E-04
    32 OT DIIS     0.15E+00   16.8     0.00000161     -1527.3488512249 -9.96E-05
    33 OT DIIS     0.15E+00   16.5     0.00000157     -1527.3489018426 -5.06E-05
    34 OT DIIS     0.15E+00   16.2     0.00000152     -1527.3489590779 -5.72E-05
    35 OT DIIS     0.15E+00   16.0     0.00000150     -1527.3489969934 -3.79E-05
    36 OT DIIS     0.15E+00   16.1     0.00000146     -1527.3490296974 -3.27E-05
    37 OT DIIS     0.15E+00   16.0     0.00000142     -1527.3490522798 -2.26E-05
    38 OT DIIS     0.15E+00   16.1     0.00000139     -1527.3490621080 -9.83E-06
    39 OT SD       0.15E+00   16.1     0.00000136     -1527.3490695642 -7.46E-06
    40 OT DIIS     0.15E+00   16.3     0.00000135     -1527.3490706289 -1.06E-06
    41 OT DIIS     0.15E+00   16.0     0.00000128     -1527.3491288700 -5.82E-05
    42 OT DIIS     0.15E+00   19.9     0.00000124     -1527.3492087921 -7.99E-05
    43 OT DIIS     0.15E+00   16.2     0.00000122     -1527.3492485077 -3.97E-05
    44 OT DIIS     0.15E+00   25.3     0.00000120     -1527.3492681163 -1.96E-05
    45 OT DIIS     0.15E+00   25.9     0.00000118     -1527.3492858404 -1.77E-05
    46 OT DIIS     0.15E+00   26.3     0.00000117     -1527.3493018043 -1.60E-05
    47 OT DIIS     0.15E+00   26.5     0.00000115     -1527.3493332741 -3.15E-05
    48 OT DIIS     0.15E+00   26.0     0.00000113     -1527.3493571494 -2.39E-05
    49 OT DIIS     0.15E+00   17.9     0.00000112     -1527.3493719990 -1.48E-05
    50 OT DIIS     0.15E+00   24.9     0.00000109     -1527.3493974036 -2.54E-05

  Leaving inner SCF loop after reaching    50 steps.


  Electronic density on regular grids:      -1046.9999999715        0.0000000285
  Core density on regular grids:             1049.9999999271       -0.0000000729
  Total charge density on r-space grids:        2.9999999556
  Total charge density g-space grids:           2.9999999556

  Overlap energy of the core charge distribution:               0.00009108160821
  Self energy of the core charge distribution:              -3603.95462265793367
  Core Hamiltonian energy:                                   1131.15353695563113
  Hartree energy:                                            1410.24438123401660
  Exchange-correlation energy:                               -464.79278401689805

  Total energy:                                             -1527.34939740357572

  outer SCF iter =    5 RMS gradient =   0.11E-05 energy =      -1527.3493974036

  ----------------------------------- OT ---------------------------------------
  Minimizer      : DIIS                : direct inversion
                                         in the iterative subspace
                                         using   7 DIIS vectors
                                         safer DIIS on
  Preconditioner : FULL_KINETIC        : inversion of T + eS
  Precond_solver : DEFAULT
  stepsize       :    0.15000000                  energy_gap     :    0.20000000
  eps_taylor     :   0.10000E-15                  max_taylor     :             4
  ----------------------------------- OT ---------------------------------------

  Step     Update method      Time    Convergence         Total energy    Change
  ------------------------------------------------------------------------------
     1 OT DIIS     0.15E+00   44.0     0.00000108     -1527.3494252905 -2.79E-05
     2 OT DIIS     0.15E+00   21.4     0.00000108     -1527.3494259707 -6.80E-07
     3 OT DIIS     0.15E+00   22.5     0.00000106     -1527.3494300255 -4.05E-06
     4 OT DIIS     0.15E+00   23.4     0.00000104     -1527.3494364272 -6.40E-06
     5 OT DIIS     0.15E+00   23.6     0.00000103     -1527.3494429325 -6.51E-06
     6 OT DIIS     0.15E+00   24.3     0.00000101     -1527.3494569886 -1.41E-05
     7 OT DIIS     0.15E+00   16.0     0.00000098     -1527.3494772453 -2.03E-05

  *** SCF run converged in     7 steps ***


  Electronic density on regular grids:      -1046.9999999714        0.0000000286
  Core density on regular grids:             1049.9999999271       -0.0000000729
  Total charge density on r-space grids:        2.9999999557
  Total charge density g-space grids:           2.9999999557

  Overlap energy of the core charge distribution:               0.00009108160821
  Self energy of the core charge distribution:              -3603.95462265793367
  Core Hamiltonian energy:                                   1131.15425399629703
  Hartree energy:                                            1410.24371571957317
  Exchange-correlation energy:                               -464.79291538488422

  Total energy:                                             -1527.34947724533913

  outer SCF iter =    6 RMS gradient =   0.98E-06 energy =      -1527.3494772453
  outer SCF loop converged in   6 iterations or  257 steps


  Integrated absolute spin density  :                               9.6545336775
  Ideal and single determinant S**2 :                    0.750000       5.756507

 ENERGY| Total FORCE_EVAL ( QS ) energy (a.u.):            -1527.349500913183419


 -------------------------------------------------------------------------------
 -                                                                             -
 -                                DBCSR STATISTICS                             -
 -                                                                             -
 -------------------------------------------------------------------------------
 COUNTER                                    TOTAL       BLAS       SMM       ACC
 flops   42 x   11 x   11                   60984       0.0%    100.0%      0.0%
 flops   42 x   12 x   12                   72576       0.0%    100.0%      0.0%
 flops    5 x   11 x   11                 1916640       0.0%    100.0%      0.0%
 flops    5 x   12 x   12                 2280960       0.0%    100.0%      0.0%
 flops   13 x   11 x   11                 3397680       0.0%    100.0%      0.0%
 flops   13 x   12 x   12                 4043520       0.0%    100.0%      0.0%
 flops   42 x   32 x   32                16515072       0.0%    100.0%      0.0%
 flops   42 x   11 x   42                20490624       0.0%    100.0%      0.0%
 flops   42 x   12 x   42                22311072       0.0%    100.0%      0.0%
 flops   42 x   42 x   43                39291336       0.0%    100.0%      0.0%
 flops   42 x   42 x   44                40205088       0.0%    100.0%      0.0%
 flops   43 x   43 x   43               272231968       0.0%    100.0%      0.0%
 flops   42 x   42 x   32               292400640       0.0%    100.0%      0.0%
 flops   44 x   44 x   44               302403200       0.0%    100.0%      0.0%
 flops   42 x    5 x   43               336782880       0.0%    100.0%      0.0%
 flops    5 x   42 x   43               336782880       0.0%    100.0%      0.0%
 flops   42 x    5 x   44               344615040       0.0%    100.0%      0.0%
 flops    5 x   42 x   44               344615040       0.0%    100.0%      0.0%
 flops    5 x   11 x   42               351267840       0.0%    100.0%      0.0%
 flops   42 x   11 x    5               351267840       0.0%    100.0%      0.0%
 flops    5 x   12 x   42               382475520       0.0%    100.0%      0.0%
 flops   42 x   12 x    5               382475520       0.0%    100.0%      0.0%
 flops    5 x   32 x   32               519045120       0.0%    100.0%      0.0%
 flops   42 x   42 x   64               584801280       0.0%    100.0%      0.0%
 flops   13 x   42 x   43               814827468       0.0%    100.0%      0.0%
 flops   13 x   42 x   44               833776944       0.0%    100.0%      0.0%
 flops   42 x   13 x   43               839150676       0.0%    100.0%      0.0%
 flops   42 x   13 x   44               858665808       0.0%    100.0%      0.0%
 flops   13 x   11 x   42               862557696       0.0%    100.0%      0.0%
 flops   42 x   11 x   13               862557696       0.0%    100.0%      0.0%
 flops   13 x   32 x   32               920125440       0.0%    100.0%      0.0%
 flops   13 x   12 x   42               939189888       0.0%    100.0%      0.0%
 flops   42 x   12 x   13               939189888       0.0%    100.0%      0.0%
 flops   32 x   43 x   43              1012956160       0.0%    100.0%      0.0%
 flops   43 x   32 x   43              1012956160       0.0%    100.0%      0.0%
 flops   43 x   43 x   32              1012956160       0.0%    100.0%      0.0%
 flops   32 x   44 x   44              1099648000       0.0%    100.0%      0.0%
 flops   44 x   32 x   44              1099648000       0.0%    100.0%      0.0%
 flops   44 x   44 x   32              1099648000       0.0%    100.0%      0.0%
 flops   42 x   32 x   42              1905684480       0.0%    100.0%      0.0%
 flops   43 x   43 x   64              2025912320       0.0%    100.0%      0.0%
 flops   43 x   64 x   43              2025912320       0.0%    100.0%      0.0%
 flops   64 x   43 x   43              2025912320       0.0%    100.0%      0.0%
 flops   44 x   44 x   64              2199296000       0.0%    100.0%      0.0%
 flops   44 x   64 x   44              2199296000       0.0%    100.0%      0.0%
 flops   64 x   44 x   44              2199296000       0.0%    100.0%      0.0%
 flops   42 x    5 x   32              2506291200       0.0%    100.0%      0.0%
 flops    5 x   42 x   32              2506291200       0.0%    100.0%      0.0%
 flops    5 x    5 x   43              2790375350       0.0%    100.0%      0.0%
 flops    5 x   11 x    5              2833723200       0.0%    100.0%      0.0%
 flops    5 x    5 x   44              2855267800       0.0%    100.0%      0.0%
 flops    5 x   12 x    5              3085479600       0.0%    100.0%      0.0%
 flops   32 x   32 x   43              3769139200       0.0%    100.0%      0.0%
 flops   32 x   43 x   32              3769139200       0.0%    100.0%      0.0%
 flops   43 x   32 x   32              3769139200       0.0%    100.0%      0.0%
 flops   43 x   43 x  338              3832266984     100.0%      0.0%      0.0%
 flops   32 x   32 x   44              3998720000       0.0%    100.0%      0.0%
 flops   32 x   44 x   32              3998720000       0.0%    100.0%      0.0%
 flops   44 x   32 x   32              3998720000       0.0%    100.0%      0.0%
 flops   44 x   44 x  338              4012584576     100.0%      0.0%      0.0%
 flops  338 x   43 x   43              4773459756     100.0%      0.0%      0.0%
 flops  338 x   44 x   44              4998062784     100.0%      0.0%      0.0%
 flops   42 x    5 x   64              5012582400       0.0%    100.0%      0.0%
 flops    5 x   42 x   64              5012582400       0.0%    100.0%      0.0%
 flops   13 x   42 x   32              6063832320       0.0%    100.0%      0.0%
 flops   13 x    5 x   43              6102519150       0.0%    100.0%      0.0%
 flops    5 x   13 x   43              6118445060       0.0%    100.0%      0.0%
 flops   13 x    5 x   44              6244438200       0.0%    100.0%      0.0%
 flops   42 x   13 x   32              6244842240       0.0%    100.0%      0.0%
 flops    5 x   13 x   44              6260734480       0.0%    100.0%      0.0%
 flops   13 x   11 x    5              6373292640       0.0%    100.0%      0.0%
 flops    5 x   11 x   13              6373292640       0.0%    100.0%      0.0%
 flops   13 x   12 x    5              6939514920       0.0%    100.0%      0.0%
 flops    5 x   12 x   13              6939514920       0.0%    100.0%      0.0%
 flops   32 x   43 x   64              7538278400       0.0%    100.0%      0.0%
 flops   32 x   64 x   43              7538278400       0.0%    100.0%      0.0%
 flops   43 x   32 x   64              7538278400       0.0%    100.0%      0.0%
 flops   43 x   64 x   32              7538278400       0.0%    100.0%      0.0%
 flops   64 x   32 x   43              7538278400       0.0%    100.0%      0.0%
 flops   64 x   43 x   32              7538278400       0.0%    100.0%      0.0%
 flops   32 x   44 x   64              7997440000       0.0%    100.0%      0.0%
 flops   32 x   64 x   44              7997440000       0.0%    100.0%      0.0%
 flops   44 x   32 x   64              7997440000       0.0%    100.0%      0.0%
 flops   44 x   64 x   32              7997440000       0.0%    100.0%      0.0%
 flops   64 x   32 x   44              7997440000       0.0%    100.0%      0.0%
 flops   64 x   44 x   32              7997440000       0.0%    100.0%      0.0%
 flops   43 x   43 x  336             10158908928     100.0%      0.0%      0.0%
 flops   44 x   44 x  336             10636910592     100.0%      0.0%      0.0%
 flops   13 x   42 x   64             12127664640       0.0%    100.0%      0.0%
 flops   42 x   13 x   64             12489684480       0.0%    100.0%      0.0%
 flops  336 x   43 x   43             12653905152     100.0%      0.0%      0.0%
 flops  336 x   44 x   44             13249302528     100.0%      0.0%      0.0%
 flops   32 x   43 x  338             14259598080       0.0%    100.0%      0.0%
 flops   43 x   32 x  338             14259598080       0.0%    100.0%      0.0%
 flops   32 x   44 x  338             14591216640       0.0%    100.0%      0.0%
 flops   44 x   32 x  338             14591216640       0.0%    100.0%      0.0%
 flops   64 x   64 x   43             15076556800       0.0%    100.0%      0.0%
 flops   43 x   64 x   64             15076556800       0.0%    100.0%      0.0%
 flops   64 x   43 x   64             15076556800       0.0%    100.0%      0.0%
 flops   64 x   64 x   44             15994880000       0.0%    100.0%      0.0%
 flops   44 x   64 x   64             15994880000       0.0%    100.0%      0.0%
 flops   64 x   44 x   64             15994880000       0.0%    100.0%      0.0%
 flops   13 x   13 x   43             16800097678       0.0%    100.0%      0.0%
 flops   13 x   11 x   13             17169307584       0.0%    100.0%      0.0%
 flops   13 x   13 x   44             17190797624       0.0%    100.0%      0.0%
 flops  338 x   32 x   43             17761710720       0.0%    100.0%      0.0%
 flops  338 x   43 x   32             17761710720       0.0%    100.0%      0.0%
 flops  338 x   32 x   44             18174773760       0.0%    100.0%      0.0%
 flops  338 x   44 x   32             18174773760       0.0%    100.0%      0.0%
 flops   13 x   12 x   13             18694679952       0.0%    100.0%      0.0%
 flops    5 x    5 x   32             20765584000       0.0%    100.0%      0.0%
 flops  338 x   43 x  338             23255737128     100.0%      0.0%      0.0%
 flops  338 x   44 x  338             23796568224     100.0%      0.0%      0.0%
 flops   43 x   64 x  338             28519196160     100.0%      0.0%      0.0%
 flops   64 x   43 x  338             28519196160     100.0%      0.0%      0.0%
 flops   32 x   32 x   32             28565504000       0.0%    100.0%      0.0%
 flops   44 x   64 x  338             29182433280     100.0%      0.0%      0.0%
 flops   64 x   44 x  338             29182433280     100.0%      0.0%      0.0%
 flops   42 x   32 x    5             32668876800       0.0%    100.0%      0.0%
 flops    5 x   32 x   42             32668876800       0.0%    100.0%      0.0%
 flops  338 x   43 x   64             35523421440     100.0%      0.0%      0.0%
 flops  338 x   64 x   43             35523421440     100.0%      0.0%      0.0%
 flops  338 x   44 x   64             36349547520     100.0%      0.0%      0.0%
 flops  338 x   64 x   44             36349547520     100.0%      0.0%      0.0%
 flops   32 x   43 x  336             37800591360       0.0%    100.0%      0.0%
 flops   43 x   32 x  336             37800591360       0.0%    100.0%      0.0%
 flops   32 x   44 x  336             38679674880       0.0%    100.0%      0.0%
 flops   44 x   32 x  336             38679674880       0.0%    100.0%      0.0%
 flops    5 x    5 x   64             41531168000       0.0%    100.0%      0.0%
 flops   13 x    5 x   32             45414096000       0.0%    100.0%      0.0%
 flops    5 x   13 x   32             45532614400       0.0%    100.0%      0.0%
 flops  336 x   32 x   43             47084298240       0.0%    100.0%      0.0%
 flops  336 x   43 x   32             47084298240       0.0%    100.0%      0.0%
 flops  336 x   32 x   44             48179281920       0.0%    100.0%      0.0%
 flops  336 x   44 x   32             48179281920       0.0%    100.0%      0.0%
 flops   32 x   32 x   64             57131008000       0.0%    100.0%      0.0%
 flops   32 x   64 x   32             57131008000       0.0%    100.0%      0.0%
 flops   64 x   32 x   32             57131008000       0.0%    100.0%      0.0%
 flops  336 x   43 x  338             61648344576     100.0%      0.0%      0.0%
 flops  338 x   43 x  336             61648344576     100.0%      0.0%      0.0%
 flops  336 x   44 x  338             63082027008     100.0%      0.0%      0.0%
 flops  338 x   44 x  336             63082027008     100.0%      0.0%      0.0%
 flops   43 x   64 x  336             75601182720     100.0%      0.0%      0.0%
 flops   64 x   43 x  336             75601182720     100.0%      0.0%      0.0%
 flops   44 x   64 x  336             77359349760     100.0%      0.0%      0.0%
 flops   64 x   44 x  336             77359349760     100.0%      0.0%      0.0%
 flops   42 x   32 x   13             80220241920       0.0%    100.0%      0.0%
 flops   13 x   32 x   42             80220241920       0.0%    100.0%      0.0%
 flops   13 x    5 x   64             90828192000       0.0%    100.0%      0.0%
 flops    5 x   13 x   64             91065228800       0.0%    100.0%      0.0%
 flops  336 x   64 x   43             94168596480     100.0%      0.0%      0.0%
 flops  336 x   43 x   64             94168596480     100.0%      0.0%      0.0%
 flops  336 x   64 x   44             96358563840     100.0%      0.0%      0.0%
 flops  336 x   44 x   64             96358563840     100.0%      0.0%      0.0%
 flops   32 x   32 x  338            106117939200       0.0%    100.0%      0.0%
 flops   64 x   64 x   32            114262016000       0.0%    100.0%      0.0%
 flops   32 x   64 x   64            114262016000       0.0%    100.0%      0.0%
 flops   64 x   32 x   64            114262016000       0.0%    100.0%      0.0%
 flops   13 x   13 x   32            125023982720       0.0%    100.0%      0.0%
 flops  338 x   32 x   32            132180172800       0.0%    100.0%      0.0%
 flops  336 x   43 x  336            163422830592     100.0%      0.0%      0.0%
 flops  336 x   44 x  336            167223361536     100.0%      0.0%      0.0%
 flops  338 x   32 x  338            173065950720     100.0%      0.0%      0.0%
 flops   32 x   64 x  338            212235878400     100.0%      0.0%      0.0%
 flops   64 x   32 x  338            212235878400     100.0%      0.0%      0.0%
 flops   64 x   64 x   64            228524032000       0.0%    100.0%      0.0%
 flops   13 x   13 x   64            250047965440       0.0%    100.0%      0.0%
 flops    5 x   32 x    5            263544064000       0.0%    100.0%      0.0%
 flops  338 x   32 x   64            264360345600     100.0%      0.0%      0.0%
 flops  338 x   64 x   32            264360345600     100.0%      0.0%      0.0%
 flops   32 x   32 x  336            281306726400       0.0%    100.0%      0.0%
 flops  338 x   64 x  338            346131901440     100.0%      0.0%      0.0%
 flops  336 x   32 x   32            350394777600       0.0%    100.0%      0.0%
 flops   64 x   64 x  338            424471756800     100.0%      0.0%      0.0%
 flops  336 x   32 x  338            458778378240     100.0%      0.0%      0.0%
 flops  338 x   32 x  336            458778378240     100.0%      0.0%      0.0%
 flops  338 x   64 x   64            528720691200     100.0%      0.0%      0.0%
 flops   32 x   64 x  336            562613452800     100.0%      0.0%      0.0%
 flops   64 x   32 x  336            562613452800     100.0%      0.0%      0.0%
 flops   13 x   32 x    5            592733772800       0.0%    100.0%      0.0%
 flops    5 x   32 x   13            592733772800       0.0%    100.0%      0.0%
 flops  336 x   64 x   32            700789555200     100.0%      0.0%      0.0%
 flops  336 x   32 x   64            700789555200     100.0%      0.0%      0.0%
 flops  336 x   64 x  338            917556756480     100.0%      0.0%      0.0%
 flops  338 x   64 x  336            917556756480     100.0%      0.0%      0.0%
 flops   64 x   64 x  336           1125226905600     100.0%      0.0%      0.0%
 flops  336 x   32 x  336           1216169902080     100.0%      0.0%      0.0%
 flops  336 x   64 x   64           1401579110400     100.0%      0.0%      0.0%
 flops   13 x   32 x   13           1596792903680       0.0%    100.0%      0.0%
 flops  336 x   64 x  336           2432339804160     100.0%      0.0%      0.0%
 flops total                        22.042304E+12      70.4%     29.6%      0.0%
 flops max/rank                    277.268133E+09      73.5%     26.5%      0.0%
 matmuls inhomo. stacks                         0       0.0%      0.0%      0.0%
 matmuls total                          759931626       0.7%     99.3%      0.0%
 number of processed stacks              21142495      23.8%     76.2%      0.0%
 average stack size                                     1.0      46.9       0.0
 marketing flops                    40.481770E+12
 -------------------------------------------------------------------------------
 # multiplications                          10200
 max memory usage/rank             906.280960E+06
 # max total images/rank                        1
 # MPI messages exchanged                24684000
 # MPI messages filtered                        0
 MPI messages size (elements):
  total size                       309.662384E+09
  min size                           0.000000E+00
  max size                         114.244000E+03
  average size                      12.545065E+03
 MPI breakdown and total messages size (bytes):
             size <=      128               42240                        0
       128 < size <=     8192             2380600              19501875200
      8192 < size <=    32768             9139920             189237641520
     32768 < size <=   131072             6113580             558267523200
    131072 < size <=  4194304             7007660            1710305061920
   4194304 < size <= 16777216                   0                        0
  16777216 < size                               0                        0
 -------------------------------------------------------------------------------

 MEMORY| Estimated peak process memory [MiB]                                 866

 -------------------------------------------------------------------------------
 -                                                                             -
 -                         MESSAGE PASSING PERFORMANCE                         -
 -                                                                             -
 -------------------------------------------------------------------------------

 ROUTINE             CALLS  TOT TIME [s]  AVE VOLUME [Bytes]  PERFORMANCE [MB/s]
 MP_Group                3         0.000
 MP_Bcast             4478         5.536             478544.              387.11
 MP_Allreduce        33040       203.804                165.                0.03
 MP_Sync               176         0.042
 MP_Alltoall         38527       791.834            9199489.              447.60
 MP_ISendRecv       123840         2.346            1944000.           102622.23
 MP_Wait           1203252      1319.955
 MP_comm_split         174         2.141
 MP_ISend           464262         3.297             147850.            20817.53
 MP_IRecv           464262         0.371             146722.           183551.50
 MP_Recv               416         0.207             947712.             1902.09
 MP_Memory          415068         0.109
 -------------------------------------------------------------------------------


 -------------------------------------------------------------------------------
 -                                                                             -
 -                           R E F E R E N C E S                               -
 -                                                                             -
 -------------------------------------------------------------------------------
 
 CP2K version 4.1, the CP2K developers group (2016).
 CP2K is freely available from https://www.cp2k.org/ .

 Schuett, Ole; Messmer, Peter; Hutter, Juerg; VandeVondele, Joost. 
 Electronic Structure Calculations on Graphics Processing Units, John Wiley & Sons, Ltd, 173-190 (2016). 
 GPU-Accelerated Sparse Matrix-Matrix Multiplication for Linear Scaling Density Functional Theory.
 http://dx.doi.org/10.1002/9781118670712.ch8


 Borstnik, U; VandeVondele, J; Weber, V; Hutter, J. 
 PARALLEL COMPUTING, 40 (5-6), 47-58 (2014). 
 Sparse matrix multiplication: The distributed block-compressed sparse
 row library.
 http://dx.doi.org/10.1016/j.parco.2014.03.012


 Hutter, J; Iannuzzi, M; Schiffmann, F; VandeVondele, J. 
 WILEY INTERDISCIPLINARY REVIEWS-COMPUTATIONAL MOLECULAR SCIENCE, 4 (1), 15-25 (2014). 
 CP2K: atomistic simulations of condensed matter systems.
 http://dx.doi.org/10.1002/wcms.1159


 VandeVondele, J; Hutter, J. 
 JOURNAL OF CHEMICAL PHYSICS, 127 (11), 114105 (2007). 
 Gaussian basis sets for accurate calculations on molecular systems in
 gas and condensed phases.
 http://dx.doi.org/10.1063/1.2770708


 Krack, M. 
 THEORETICAL CHEMISTRY ACCOUNTS, 114 (1-3), 145-152 (2005). 
 Pseudopotentials for H to Kr optimized for gradient-corrected
 exchange-correlation functionals.
 http://dx.doi.org/10.1007/s00214-005-0655-y


 VandeVondele, J; Krack, M; Mohamed, F; Parrinello, M; Chassaing, T;
 Hutter, J. COMPUTER PHYSICS COMMUNICATIONS, 167 (2), 103-128 (2005). 
 QUICKSTEP: Fast and accurate density functional calculations using a
 mixed Gaussian and plane waves approach.
 http://dx.doi.org/10.1016/j.cpc.2004.12.014


 Frigo, M; Johnson, SG. 
 PROCEEDINGS OF THE IEEE, 93 (2), 216-231 (2005). 
 The design and implementation of FFTW3.
 http://dx.doi.org/10.1109/JPROC.2004.840301


 VandeVondele, J; Hutter, J. 
 JOURNAL OF CHEMICAL PHYSICS, 118 (10), 4365-4369 (2003). 
 An efficient orbital transformation method for electronic structure
 calculations.
 http://dx.doi.org/10.1063/1.1543154


 Hartwigsen, C; Goedecker, S; Hutter, J. 
 PHYSICAL REVIEW B, 58 (7), 3641-3662 (1998). 
 Relativistic separable dual-space Gaussian pseudopotentials from H to Rn.
 http://dx.doi.org/10.1103/PhysRevB.58.3641


 Lippert, G; Hutter, J; Parrinello, M. 
 MOLECULAR PHYSICS, 92 (3), 477-487 (1997). 
 A hybrid Gaussian and plane wave density functional scheme.
 http://dx.doi.org/10.1080/002689797170220


 Perdew, JP; Burke, K; Ernzerhof, M. 
 PHYSICAL REVIEW LETTERS, 77 (18), 3865-3868 (1996). 
 Generalized gradient approximation made simple.
 http://dx.doi.org/10.1103/PhysRevLett.77.3865


 Goedecker, S; Teter, M; Hutter, J. 
 PHYSICAL REVIEW B, 54 (3), 1703-1710 (1996). 
 Separable dual-space Gaussian pseudopotentials.
 http://dx.doi.org/10.1103/PhysRevB.54.1703


 -------------------------------------------------------------------------------
 -                                                                             -
 -                                T I M I N G                                  -
 -                                                                             -
 -------------------------------------------------------------------------------
 SUBROUTINE                       CALLS  ASD         SELF TIME        TOTAL TIME
                                MAXIMUM       AVERAGE  MAXIMUM  AVERAGE  MAXIMUM
 CP2K                                 1  1.0    0.030    0.056 4797.988 4798.001
 qs_forces                            1  2.0    0.001    0.002 4796.570 4796.571
 qs_energies                          1  3.0    0.000    0.004 4784.930 4784.931
 scf_env_do_scf                       1  4.0    0.000    0.001 4769.284 4769.285
 scf_env_do_scf_inner_loop          257  5.0    0.014    0.029 4683.247 4683.375
 rebuild_ks_matrix                  258  7.0    0.002    0.008 2800.907 2801.884
 qs_ks_build_kohn_sham_matrix       258  8.0    0.063    0.079 2800.905 2801.882
 qs_ks_update_qs_env                263  6.0    0.004    0.006 2795.260 2796.288
 pw_transfer                       6967 10.8    1.098    1.361 1737.678 1896.496
 fft_wrap_pw1pw2                   6451 11.8    0.145    0.177 1726.621 1890.150
 rs_pw_transfer                    2066 10.5    0.077    0.097 1738.527 1846.674
 fft_wrap_pw1pw2_250               5419 12.9  105.394  133.054 1664.700 1805.851
 fft3d_ps                          6451 13.8  704.643  832.440 1393.751 1651.980
 mp_waitall_1                   1187742 14.2 1282.061 1538.213 1282.061 1538.213
 qs_vxc_create                      258  9.0    0.012    0.034 1387.865 1399.256
 xc_vxc_pw_create                   258 10.0   17.483   26.340 1387.853 1399.249
 qs_rho_update_rho                  258  6.0    0.004    0.016 1320.020 1320.837
 calculate_rho_elec                 516  7.0   80.154   92.834 1320.016 1320.832
 sum_up_and_integrate               258  9.0    4.992    6.416 1253.725 1254.632
 integrate_v_rspace                 516 10.0   58.541   78.483 1248.730 1251.202
 potential_pw2rs                    516 11.0    0.168    0.325 1154.859 1180.643
 density_rs2pw                      516  8.0    0.025    0.043 1108.075 1153.197
 mp_alltoall_z22v                  6451 15.8  557.476  973.506  557.476  973.506
 rs_pw_transfer_PW2RS_90            516 13.0  158.566  315.810  812.070  873.532
 xc_rho_set_and_dset_create         258 11.0   12.827   17.089  646.268  693.027
 qs_scf_new_mos                     257  6.0    0.002    0.003  636.275  636.763
 qs_scf_loop_do_ot                  257  7.0    0.001    0.002  636.273  636.761
 rs_pw_transfer_RS2PW_90            516 10.0  122.781  250.045  596.038  628.259
 ot_scf_mini                        257  8.0    0.014    0.018  608.178  609.046
 dbcsr_multiply_generic           10200 11.1    0.227    0.240  574.612  588.622
 yz_to_x                           3097 14.5   45.243   58.622  343.547  557.141
 x_to_yz                           3354 15.1   86.137   99.008  345.309  506.359
 ot_mini                            257  9.0    0.003    0.004  424.461  425.477
 qs_ot_get_derivative               514 10.0    0.005    0.006  335.762  337.146
 multiply_cannon                  10200 12.1    0.633    0.694  236.436  271.002
 mp_waitany                       15510 12.5  150.695  252.280  150.695  252.280
 rs_pw_transfer_RS2PW_250           517 10.0   73.697   95.984  166.151  216.978
 rs_pw_transfer_PW2RS_250           517 13.0   76.925   91.016  164.190  180.710
 make_m2s                         20400 12.1    0.228    0.245  143.554  152.989
 make_images                      20400 13.1    2.421    2.511  142.316  151.757
 qs_ot_get_derivative_taylor        346 11.0    0.008    0.009  146.272  147.496
 mp_sum_d                         10717 11.2   87.268  134.875   87.268  134.875
 pw_scatter_p                      3354 14.1  119.377  133.668  119.377  133.668
 multiply_cannon_metrocomm3      112200 13.1    0.096    0.110   72.652  127.782
 make_images_sizes                20400 14.1    0.015    0.016  115.266  126.808
 mp_alltoall_i44                  20400 15.1  115.252  126.793  115.252  126.793
 mp_sum_l                         18304 12.3  105.118  122.538  105.118  122.538
 rs_grid_zero                      1550 10.0  110.844  121.525  110.844  121.525
 mp_alltoall_d11v                  5814 13.1   46.719  121.197   46.719  121.197
 rs_distribute_matrix              1034  9.5    0.171    0.465   45.909  120.611
 pw_derive                         3096 11.5   92.383  114.704   92.383  114.704
 pw_gather_p                       3097 13.5  104.419  113.729  104.419  113.729
 qs_ot_get_p                        526  9.0    0.003    0.004  109.407  111.827
 qs_ot_get_derivative_diag          168 11.0    0.004    0.006  100.029  100.470
 xc_functional_eval                 258 12.0    0.006    0.009   52.659   98.539
 pbe_lsd_eval                       258 13.0   52.653   98.532   52.653   98.532
 -------------------------------------------------------------------------------

 The number of warnings for this run is : 0
 
 -------------------------------------------------------------------------------
  **** **** ******  **  PROGRAM ENDED AT                 2023-03-23 12:28:59.520
 ***** ** ***  *** **   PROGRAM RAN ON            node121.pri.kelvin2.alces.netw
 **    ****   ******    PROGRAM RAN BY                                  40265864
 ***** **    ** ** **   PROGRAM PROCESS ID                                 17162
  **** **  *******  **  PROGRAM STOPPED IN /mnt/scratch2/users/40265864/MSc_ML_M
                                           M/ln_replacements/xyz/Gd_L6_O_O_O_O/p
                                           relim_energy/run-2
