     165
 i =       29, E =      -790.4887808165
  C         2.3649495637        0.5807664834        0.8987085492
  C         1.5678271315       -0.5623269788        0.2440213547
  C         1.9145576446       -0.9133285371       -1.2193479621
  O         1.1210901986       -0.0681306737       -2.1630697996
  C         1.4489826766        1.2427943312       -2.3210736835
  C         0.7047398563        2.2273780491       -1.6005663485
  C         0.9950446943        3.5972745497       -1.6943219377
  C         2.0426865054        4.0651022221       -2.5279723723
  C         2.7522628451        3.1132752862       -3.2701382032
  C         2.4582676646        1.7157868168       -3.2039431573
  C         3.2935328564        1.0964258327       -4.2473321362
  N         3.1185567539       -0.1200445415       -4.7672304346
  C         3.8315414873       -0.6112453264       -5.7993497797
  C         3.2778459746       -1.6275575727       -6.7046457127
  C         1.9656454758       -2.1020468109       -6.7996745094
  C         1.6738890064       -3.0120530077       -7.8490518450
  C         2.6931425797       -3.4479245030       -8.7031063644
  C         4.0523044071       -3.0043305819       -8.5790981680
  C         4.3252375720       -1.9967249872       -7.6029504904
  C         5.4318367329       -1.0636461772       -7.3029223797
  N         5.1154018699       -0.2974585571       -6.1719881735
 Dy         6.3991575808        1.3298607414       -4.9960744368
  N         4.1727782369        2.0413486002       -4.7788287545
  C         3.8341684252        3.2754645982       -4.2657723680
  N         4.3389593577        4.4539962705       -4.6529295854
  C         5.4172564670        4.5894522086       -5.4418319073
  N         6.3871966341        3.6015801983       -5.6511554466
  C         7.3131745190        4.1103238961       -6.5241476934
  N         8.2677440654        3.4784027849       -7.2354332539
  C         8.2282116401        2.1914277589       -7.5829826551
  N         7.2882287253        1.2403696480       -7.1531560034
  C         7.3226565710        0.1830628402       -8.0297406798
  N         6.5106101180       -0.8988560163       -8.0829349994
  C         8.4022111331        0.3983589170       -9.0141560872
  C         9.0470877928        1.6202341338       -8.6622719464
  C        10.1654055254        2.0865640646       -9.4087652740
  C        10.5537151233        1.2939484919      -10.5415521066
  C         9.8655886975        0.1266904902      -10.9038037893
  C         8.7692009132       -0.3489633965      -10.1380262353
  O        10.7659392577        3.2602624573       -9.1000740546
  C        12.1807600374        3.3388153761       -8.5929665547
  C        12.1074287636        3.1409177622       -7.0677807474
  C        11.4379020115        4.3134943967       -6.3325952673
  C        13.1797555941        2.4099545818       -9.2965749837
  C        13.6171059421        2.8613497137      -10.7026069339
  C         7.0939156867        5.5564188616       -6.6854363406
  C         5.8327210848        5.8415030457       -6.0836685134
  C         5.3448749769        7.1821063148       -6.1315763356
  C         6.2875929605        8.2020525818       -6.5092300811
  C         7.5300577919        7.8902737321       -7.0695447778
  C         7.9335423629        6.5349042054       -7.2240965076
  O         4.1033253445        7.6175034961       -5.8404861037
  C         2.9430555198        7.1302251293       -6.6653710072
  C         1.6919326434        7.5513078812       -5.8943249001
  C         1.5026026651        6.8240790569       -4.5592252564
  C         3.0130287748        7.7896363050       -8.0580084159
  C         4.0037876954        7.1716872247       -9.0585885074
  O         8.6039091582        1.5995669899       -4.3819631565
  C         9.7941292188        1.1549342687       -4.4000268815
  N        10.5689383391        0.9956429580       -3.3220105484
  C        10.0879536568        1.3597442049       -1.9795635418
  C        11.9406914475        0.4606369493       -3.4679326329
  O         4.8035411636        2.6983598775       -7.8714560447
  C         3.7622056928        2.4459547346       -8.5177839992
  N         3.6134737029        2.5807303088       -9.8637933173
  C         4.7461837420        3.0032973752      -10.6912085112
  C         2.3278143508        2.3255369464      -10.5154118662
  N         6.1670022337        1.5537498756       -2.4039257957
  C         6.2155342480        0.4325216917       -1.6228937863
  C         6.3429382951       -0.8799886884       -2.3184115031
  N         6.6908620897       -0.8529830605       -3.6404435127
  C         6.9351495075       -2.0380862082       -4.2543172455
  C         6.8372972000       -3.2863932430       -3.6184392129
  C         6.3893109219       -3.3169172680       -2.2855157706
  C         6.1315594856       -2.1004228393       -1.6348888819
  C         6.1916737343        0.5075192824       -0.2105288625
  C         6.0984299955        1.7597216393        0.4182022112
  C         6.0387328116        2.9120512427       -0.3828415904
  C         6.0726886292        2.7558259584       -1.7815902649
  O         4.9309193829       -3.5872792295       -9.4255031606
  C         5.9692981987       -4.5406446030       -8.9183749561
  C         5.3016843099       -5.7542666013       -8.2389114115
  C         4.8718836639       -5.5649704002       -6.7735817366
  C         6.7542610199       -4.9419539521      -10.1705620053
  C         7.5266945639       -3.7882978390      -10.8233857146
  C         1.5577760069       -2.3662362836       -1.5532457549
  C         1.8520474759       -2.7983837855       -2.9958930114
  H         1.9894033696        0.7714338121        1.9165350533
  H         3.4344034757        0.3242344217        0.9853352116
  H         2.2920684135        1.5292419138        0.3438766359
  H         1.7093839976       -1.4765815145        0.8461699500
  H         0.4840232311       -0.3546242885        0.2828560504
  H         2.9837638486       -0.7183897721       -1.4388319942
  H        -0.0938715138        1.8721665488       -0.9443223257
  H         0.4106545607        4.3090235146       -1.1055187684
  H         2.2709359874        5.1280933200       -2.6065783782
  H         1.1980180980       -1.7619542268       -6.1018481141
  H         0.6595229656       -3.3984130653       -7.9757956403
  H         2.4906374147       -4.1944482600       -9.4752256428
  H        11.3783135589        1.6426670967      -11.1636331863
  H        10.1762351039       -0.4149793248      -11.8012737032
  H         8.2105388086       -1.2392301749      -10.4293300229
  H        12.4336982404        4.3860450241       -8.8231001963
  H        11.5705809529        2.1911820557       -6.8755969111
  H        13.1347089433        2.9975396785       -6.6911377284
  H        11.3161706733        4.0997195759       -5.2579697603
  H        12.0483619882        5.2271888485       -6.4157704851
  H        10.4407026796        4.5162762796       -6.7539268526
  H        14.0741388264        2.3665662336       -8.6507826156
  H        12.7918738860        1.3740216713       -9.3051318832
  H        14.2326816812        2.0905279402      -11.1903094767
  H        12.7642398460        3.0809906344      -11.3641256874
  H        14.2190568970        3.7820635251      -10.6467623148
  H         5.9462314204        9.2369956750       -6.4328855047
  H         8.1846524765        8.6997091242       -7.4040214978
  H         8.8804193743        6.2665351024       -7.6969073686
  H         3.0169060208        6.0290654009       -6.7281302009
  H         1.7275564324        8.6434630182       -5.7407964892
  H         0.8236421564        7.3590731352       -6.5477398921
  H         1.4364785651        5.7347030412       -4.7219945674
  H         2.3479482310        7.0200264969       -3.8802977384
  H         0.5758921655        7.1461782148       -4.0604518280
  H         1.9963988246        7.7413851772       -8.4878577859
  H         3.2255153966        8.8627819864       -7.9087817572
  H         3.7433900931        6.1257626356       -9.2914071495
  H         3.9963547254        7.7411324942      -10.0010299746
  H         5.0417866105        7.1830421037       -8.6933696865
  H        10.2657961034        0.8755271304       -5.3596152420
  H         9.9856184999        0.4507169309       -1.3651043766
  H        10.8091198718        2.0374831293       -1.4986307398
  H         9.1148073218        1.8575290347       -2.0712602187
  H        12.2766113200        0.0900761330       -2.4909439969
  H        11.9468411724       -0.3799562020       -4.1761003969
  H        12.6363003786        1.2420084391       -3.8098518433
  H         2.8329625615        2.0951849249       -8.0162782581
  H         5.5712319333        3.2877400669      -10.0234215663
  H         5.0737938141        2.1818286958      -11.3514614815
  H         4.4639989286        3.8653093152      -11.3170619865
  H         1.5943995232        2.0051335381       -9.7610303572
  H         1.9536942218        3.2415511077      -11.0021569103
  H         2.4219630559        1.5365417402      -11.2803283501
  H         7.2157123837       -1.9852169016       -5.3084055797
  H         7.0836460171       -4.2027772977       -4.1584176156
  H         6.2443381305       -4.2650711422       -1.7610242936
  H         5.7609154233       -2.1061222321       -0.6073859362
  H         6.2667269542       -0.3962987216        0.3969364238
  H         6.0834597912        1.8284938693        1.5102022324
  H         5.9658241438        3.9093357792        0.0570928117
  H         6.0260141788        3.6354863760       -2.4293965642
  H         6.6117112863       -3.9832847066       -8.2108214442
  H         4.4458848842       -6.0698312046       -8.8625368688
  H         6.0233989285       -6.5882668984       -8.2886130826
  H         4.3900619448       -6.4785842377       -6.3917233725
  H         5.7451097327       -5.3543760986       -6.1323606602
  H         4.1514455203       -4.7427226683       -6.6418726917
  H         7.4520028780       -5.7491724723       -9.8879409080
  H         6.0435338044       -5.3848108098      -10.8904199331
  H         8.3275529401       -3.4319450472      -10.1536454778
  H         7.9941112024       -4.1086695362      -11.7653121436
  H         6.8498717365       -2.9470555532      -11.0445575513
  H         2.1228450170       -2.9997754343       -0.8464317685
  H         0.4900544115       -2.5219691592       -1.3186450703
  H         1.5823681620       -3.8554653044       -3.1431980669
  H         1.2781264984       -2.1904519779       -3.7100056757
  H         2.9222485708       -2.6825380153       -3.2427613433
