     165
 i =        1, E =      -790.3222058385
  C         2.6342717081        0.6297964846        0.8585687645
  C         1.7346432375       -0.4283798786        0.2024719591
  C         2.0319259255       -0.7938362642       -1.2821711735
  O         1.1401635054       -0.0937465875       -2.2169997624
  C         1.4277410123        1.2410865313       -2.3169139120
  C         0.7417491858        2.2278166779       -1.5681705810
  C         1.1140728871        3.5874410271       -1.6198935534
  C         2.1443794285        4.0814130250       -2.4480873178
  C         2.7342326229        3.1076658816       -3.2586002334
  C         2.4040799358        1.7334832642       -3.2055474760
  C         3.2428185731        1.0697537880       -4.1411274523
  N         2.9904702796       -0.1050455110       -4.7013897984
  C         3.6991203028       -0.6067054192       -5.7308079672
  C         3.2194110694       -1.6446551823       -6.5910536362
  C         1.9334358052       -2.1958003771       -6.6291710122
  C         1.7343823405       -3.0905790055       -7.6990076807
  C         2.7459410088       -3.4508519049       -8.6138895131
  C         4.0731919582       -2.9239087583       -8.5218994825
  C         4.2593591217       -1.9354158098       -7.5135466460
  C         5.3172246310       -1.0163884269       -7.2156340898
  N         4.9872725937       -0.3207837378       -6.0800207641
 Dy         6.1734202777        1.3987950985       -5.2172628853
  N         4.0571246729        2.0092046526       -4.7344549701
  C         3.8790740046        3.2208205690       -4.1089293031
  N         4.3634905523        4.3891859599       -4.5698517543
  C         5.4636258754        4.5012031254       -5.3211964985
  N         6.4457417165        3.5513438397       -5.4771850777
  C         7.4446115961        4.0014557039       -6.2830763042
  N         8.3648236421        3.3366787054       -7.0031709743
  C         8.2838069015        2.0329274574       -7.3549076358
  N         7.2807950936        1.1685556694       -7.0696076016
  C         7.2648275345        0.1212482519       -7.9118065676
  N         6.4108662783       -0.8935869583       -7.9803635799
  C         8.2920428834        0.3270652782       -8.8652168749
  C         8.9297601675        1.5395912962       -8.5233464092
  C         9.9637224411        2.0513182159       -9.3347820874
  C        10.2772370229        1.2904875183      -10.4926052410
  C         9.6363470172        0.0675910321      -10.7706194366
  C         8.6248519603       -0.4748860038       -9.9560090410
  O        10.5693129656        3.2377617859       -9.0117028982
  C        11.9417972350        3.3289571713       -8.4766174737
  C        11.8622901642        3.2021078760       -6.9350233564
  C        11.4777453606        4.4920573121       -6.1968391115
  C        12.9491621876        2.3501955429       -9.1331007832
  C        13.4939241879        2.8362935286      -10.4895719835
  C         7.2289840904        5.4027073696       -6.4827889642
  C         5.9639386971        5.7072306900       -5.9160117309
  C         5.4241121590        7.0053168163       -6.0284882353
  C         6.3048210853        7.9853761057       -6.5513514908
  C         7.5552606061        7.6575718388       -7.1072327327
  C         8.0309795577        6.3312882543       -7.1599085658
  O         4.1664485352        7.3413775224       -5.6212899912
  C         3.1494353364        7.0441421005       -6.6480111000
  C         1.8189122133        7.3718747765       -5.9378023976
  C         1.4641227856        6.5749744958       -4.6814301392
  C         3.3013615227        7.8932345433       -7.9475810308
  C         4.0981485307        7.2779398881       -9.1142316292
  O         8.2933272988        1.6015283496       -4.4918788780
  C         9.4487287467        1.1040489535       -4.5769330651
  N        10.1956708458        0.9799694425       -3.4628255512
  C         9.6377038120        1.2250482564       -2.1415657428
  C        11.5897316385        0.5812855145       -3.5927110775
  O         5.0119882836        2.1619219603       -7.1047293229
  C         3.9228524765        2.1062822489       -7.7315111219
  N         3.9123636915        2.4399895756       -9.0393188360
  C         5.1354710101        2.8360667418       -9.7257862154
  C         2.7220119744        2.2476258163       -9.8428827280
  N         6.2829853636        1.8047251736       -2.9204439006
  C         6.0154290420        0.6848522254       -2.2286028648
  C         6.1273308880       -0.5784570278       -2.9181475554
  N         6.8453154508       -0.5421724784       -4.0665670441
  C         7.2639895846       -1.6600053081       -4.7025445222
  C         7.1302295919       -2.8835447638       -4.0759198400
  C         6.3001936994       -2.9560874896       -2.9485569750
  C         5.8515882736       -1.8148157777       -2.3048086886
  C         5.8502624768        0.7498741933       -0.8337999050
  C         5.8762001629        2.0024153720       -0.2458139684
  C         6.1487119862        3.1488881021       -0.9955234775
  C         6.3343227534        3.0237362784       -2.3584662574
  O         5.0684377462       -3.3169114785       -9.4329662523
  C         5.9491533352       -4.4727810675       -8.9703480866
  C         5.1643049167       -5.6863404548       -8.3865373932
  C         4.8682848531       -5.6482943809       -6.8795785975
  C         6.8223951117       -4.9258720220      -10.1857504043
  C         7.7950131429       -3.9413937056      -10.8349212429
  C         1.7935088064       -2.2967753662       -1.5379387982
  C         2.0443468041       -2.8396896996       -2.9491879972
  H         2.5694324859        0.5595458948        1.9528824202
  H         3.6762529153        0.4548428867        0.5607636392
  H         2.3264987592        1.6375886928        0.5556275162
  H         1.7925499476       -1.3539654925        0.8034834788
  H         0.6802584549       -0.0967961928        0.2694525555
  H         3.0823456053       -0.5339014694       -1.4960978555
  H        -0.0595511365        1.8810696103       -0.9176949389
  H         0.5831836039        4.3089749865       -1.0022434050
  H         2.4883821262        5.1163497282       -2.4847834895
  H         1.1719585620       -1.9103057692       -5.8994061847
  H         0.7499367942       -3.5488136910       -7.7867341028
  H         2.5227104827       -4.1561624729       -9.4113399371
  H        11.0197899506        1.7072911462      -11.1703752725
  H         9.9240861426       -0.4993933191      -11.6521826774
  H         8.0862346525       -1.4074531064      -10.1325331767
  H        12.2246181451        4.3463371236       -8.7459718489
  H        11.1690500041        2.3890536307       -6.6383735706
  H        12.8649074507        2.8898410511       -6.5854604407
  H        11.5267854175        4.3418146471       -5.1086191743
  H        12.1783323170        5.2915368090       -6.4684480803
  H        10.4525387862        4.7607854132       -6.4737450277
  H        13.7989540067        2.2662215024       -8.4299218437
  H        12.5382320582        1.3258742929       -9.2269688036
  H        13.7515679041        1.9783509951      -11.1234474637
  H        12.7277503849        3.4429353282      -10.9863036576
  H        14.3996176932        3.4402149140      -10.3519005360
  H         5.9349767187        9.0095850160       -6.5418273945
  H         8.1682487634        8.4454898348       -7.5403615807
  H         8.9711247137        6.0338656862       -7.6275551922
  H         3.2038313000        5.9795165786       -6.9284228718
  H         1.8209331058        8.4533261902       -5.6905372462
  H         1.0069539652        7.2522092151       -6.6806564328
  H         1.5084627938        5.5059068538       -4.9226055389
  H         2.1799700717        6.8270440633       -3.8908508449
  H         0.4480706959        6.8312438556       -4.3489646358
  H         2.2774855220        8.1000510019       -8.3087368854
  H         3.7302371116        8.8798983541       -7.6852006481
  H         4.0425276069        6.1811555224       -9.0723925028
  H         3.6848195217        7.6135531965      -10.0758977574
  H         5.1442791856        7.6024949191       -9.0700762178
  H         9.9091237274        0.8048984536       -5.5356377216
  H         9.4226595541        0.2754062565       -1.6291768095
  H        10.3347206881        1.7930135632       -1.5135297572
  H         8.7073908708        1.7960860129       -2.2286965259
  H        12.0334114357        0.4523503604       -2.6005542683
  H        11.6487938525       -0.3697730653       -4.1321418133
  H        12.1454402100        1.3588351058       -4.1296487049
  H         2.9420007656        1.8469600218       -7.2884931121
  H         5.9134882317        3.1244922452       -9.0095363882
  H         5.5393896367        2.0504582842      -10.3804654554
  H         4.9337952877        3.7069288151      -10.3644687404
  H         1.8885703567        2.1231005905       -9.1433486153
  H         2.5558666429        3.1337999359      -10.4660733441
  H         2.8152645273        1.3527978024      -10.4720548388
  H         7.8677234205       -1.4780703665       -5.6054669746
  H         7.5807135062       -3.7557954741       -4.5447807403
  H         6.0844648377       -3.9164436751       -2.4861902814
  H         5.2385241285       -1.8390609591       -1.4012473971
  H         5.7052190431       -0.1639563476       -0.2559148478
  H         5.7052733566        2.0719997487        0.8261692451
  H         6.1887488697        4.1441210682       -0.5598537128
  H         6.5955383562        3.8560132959       -3.0245857328
  H         6.5967160035       -4.0353756690       -8.1987377841
  H         4.2322984891       -5.8359878427       -8.9660266124
  H         5.7857447168       -6.5759899385       -8.6005947451
  H         4.7801387033       -6.6734151057       -6.4944956929
  H         5.6865460548       -5.1367135967       -6.3551316279
  H         3.9160885976       -5.1332543875       -6.7128605271
  H         7.4060499149       -5.8032619660       -9.8263346336
  H         6.1725598249       -5.3804580946      -10.9696269653
  H         8.3058830375       -3.4112221499      -10.0210817679
  H         8.5375987862       -4.4669348694      -11.4513202721
  H         7.2060000724       -3.2613113418      -11.4595177351
  H         2.4320860223       -2.8531906156       -0.8232053608
  H         0.7535549078       -2.5357961997       -1.2356162209
  H         2.0331635553       -3.9389576011       -2.9367742410
  H         1.2508113918       -2.4807215069       -3.6131209210
  H         3.0211602384       -2.4865389699       -3.3031658464
     165
 i =        2, E =      -790.3677934636
  C         2.6282216816        0.6259953733        0.8447269961
  C         1.7242258063       -0.4312274907        0.1990946845
  C         2.0290871174       -0.8247380913       -1.2697236242
  O         1.1411611618       -0.0732430177       -2.1842052081
  C         1.3747858337        1.2638974565       -2.3226858854
  C         0.7117614682        2.2484096573       -1.5463932165
  C         1.0710489165        3.6108898204       -1.5988649371
  C         2.1145184479        4.0842580848       -2.4271060776
  C         2.7898256644        3.1121014947       -3.1617039799
  C         2.4181138992        1.7319947968       -3.1413107364
  C         3.1568957604        1.1006872743       -4.2361153798
  N         2.9895637728       -0.1636030555       -4.6803047782
  C         3.7196863817       -0.6542911019       -5.7038276215
  C         3.1883428861       -1.6501785420       -6.6255409606
  C         1.9210181912       -2.2226379953       -6.6483055981
  C         1.7100548919       -3.1255289565       -7.7122403521
  C         2.7320592151       -3.4702740718       -8.6210008318
  C         4.0507743296       -2.9453291920       -8.5442278313
  C         4.2446339181       -1.9801221846       -7.5360854810
  C         5.3382468754       -1.0742241210       -7.2141019478
  N         4.9837569726       -0.3229750091       -6.1104779477
 Dy         6.1563311666        1.3220226292       -5.2068724871
  N         4.0728592648        2.0115785202       -4.7216534496
  C         3.7709226002        3.2545220540       -4.2535585524
  N         4.3826968575        4.4259487912       -4.5394860751
  C         5.5030663349        4.5280912431       -5.2696430264
  N         6.4672565725        3.5438433562       -5.4184532563
  C         7.4284324229        4.0048078086       -6.2887031709
  N         8.3829651046        3.3650860604       -7.0004134808
  C         8.2312656304        2.1020611652       -7.4394202021
  N         7.3222959473        1.1517449858       -7.0336264617
  C         7.2587409130        0.1179471577       -7.9314450576
  N         6.4123496730       -0.9327192364       -8.0051800293
  C         8.3348574937        0.3110368296       -8.8921509381
  C         9.0070927651        1.5164324212       -8.5273999825
  C        10.0231102880        2.0415751627       -9.3425035270
  C        10.2957530404        1.2840654330      -10.5209168797
  C         9.6709111162        0.0545964617      -10.8113529570
  C         8.6456014995       -0.4709041272       -9.9948167957
  O        10.5651886701        3.2508774685       -9.0448657196
  C        11.9397952723        3.3258227711       -8.4783513868
  C        11.8755095203        3.2056425681       -6.9406905133
  C        11.4747021626        4.4884953486       -6.2111825827
  C        12.9448512873        2.3617834463       -9.1308185204
  C        13.4796698424        2.8348372455      -10.4916785825
  C         7.2370972823        5.4367959132       -6.4958614420
  C         5.9417676226        5.7353774043       -5.9660867461
  C         5.4501492359        7.0532281797       -6.0095192931
  C         6.3214969413        8.0285959536       -6.5616291272
  C         7.5644153986        7.6945466532       -7.1274564702
  C         8.0410593563        6.3645113269       -7.1533908242
  O         4.1759600596        7.3693495696       -5.6649193143
  C         3.1078559452        7.0510063087       -6.6487297067
  C         1.7912776780        7.3859884028       -5.9465539363
  C         1.4838054972        6.5717572186       -4.6930875152
  C         3.3037822340        7.8944176778       -7.9354140061
  C         4.1023452094        7.2757550875       -9.0966749784
  O         8.3301020855        1.6683665196       -4.5224432886
  C         9.4728459336        1.1486223611       -4.5509742854
  N        10.2138498494        0.9560554049       -3.4586341708
  C         9.6402063215        1.2298517605       -2.1347347394
  C        11.6212346232        0.5654878480       -3.6015735178
  O         5.0196725258        2.1961247423       -7.1396985498
  C         3.9342576599        2.1434251953       -7.7635412366
  N         3.9060737323        2.4352077847       -9.0687343884
  C         5.1467481437        2.8475501881       -9.7354543467
  C         2.6928070120        2.2499062130       -9.8510889178
  N         6.2389246719        1.8227741125       -2.9109921868
  C         6.0236059275        0.6965109934       -2.1847318512
  C         6.2206347575       -0.6141993407       -2.8630603412
  N         6.8356405924       -0.5750974300       -4.0676366818
  C         7.3539541339       -1.6690721209       -4.6442087351
  C         7.0860975268       -2.9423431218       -4.1134032740
  C         6.3346616265       -3.0112169582       -2.9062728529
  C         5.7831417271       -1.8508188224       -2.3259497375
  C         5.8107002390        0.7549758063       -0.7929981323
  C         5.8815153485        2.0222840092       -0.1834786112
  C         6.1286452292        3.1875601339       -0.9539051759
  C         6.3672490545        3.0313155821       -2.3285600692
  O         5.0240883923       -3.3667615695       -9.4093469752
  C         5.9673049379       -4.4779200353       -8.9776923417
  C         5.1716509937       -5.6622169239       -8.4006077507
  C         4.8652455465       -5.6367779722       -6.8977170988
  C         6.8018581486       -4.9432748891      -10.1858287572
  C         7.7606228135       -3.9333995220      -10.8104719724
  C         1.7884583262       -2.3162044650       -1.5234380038
  C         2.0448781179       -2.8192352037       -2.9433985849
  H         2.5718372383        0.5710549489        1.9460604959
  H         3.6890112771        0.4726135373        0.5790312047
  H         2.3575536999        1.6578697453        0.5635116256
  H         1.7580532399       -1.3634391635        0.7972603321
  H         0.6516916174       -0.1443704025        0.2855307299
  H         3.0765159019       -0.5446146781       -1.5225334853
  H        -0.0833965483        1.8889764848       -0.8941173007
  H         0.5503699162        4.3224614294       -0.9624686430
  H         2.4642185428        5.1182648228       -2.4747685984
  H         1.1697821811       -1.9201826798       -5.9116006680
  H         0.7245673016       -3.5723759145       -7.8168927086
  H         2.5311163265       -4.1701647646       -9.4291135346
  H        11.0414295288        1.7008060318      -11.1934367018
  H         9.9504678626       -0.5029878842      -11.7009613890
  H         8.0933054126       -1.4019268411      -10.1589525604
  H        12.2343075979        4.3581294369       -8.7258911761
  H        11.2020104015        2.3644206346       -6.6516105619
  H        12.8657770989        2.8538062167       -6.5759607797
  H        11.5228007378        4.3555593288       -5.1141492076
  H        12.1680578452        5.3113016548       -6.4563200403
  H        10.4459742806        4.7878457893       -6.4644151849
  H        13.7866157458        2.2252548105       -8.4162137348
  H        12.5483675742        1.3194775417       -9.1819361902
  H        13.7623293895        1.9904120571      -11.1425167427
  H        12.7382670904        3.4525882792      -11.0274581101
  H        14.3873863368        3.4502431088      -10.3701092982
  H         5.9356536724        9.0470936653       -6.5520331881
  H         8.1792304889        8.4838430711       -7.5530148767
  H         8.9738914439        6.0432091532       -7.6271305733
  H         3.1821514469        5.9697862888       -6.8982141147
  H         1.8125014308        8.4727091737       -5.7221706391
  H         0.9957856713        7.2729966336       -6.7068570237
  H         1.5027809377        5.4853253853       -4.8917181031
  H         2.1789456674        6.8060358816       -3.8706688538
  H         0.4645080739        6.8244788752       -4.3476559103
  H         2.2773146606        8.1299718885       -8.2820921843
  H         3.6846959144        8.9110255776       -7.6787076300
  H         4.0560733351        6.1693033115       -9.0969609371
  H         3.6987224340        7.6051703413      -10.0712189228
  H         5.1641766893        7.5728388968       -9.0917282267
  H         9.9518817296        0.7976043596       -5.4958621743
  H         9.4279761251        0.2705204525       -1.6259828737
  H        10.3504805356        1.7996364448       -1.5181211410
  H         8.7078439979        1.8008259927       -2.2335313431
  H        12.0396879315        0.4456328554       -2.5939327662
  H        11.6828585126       -0.3917891451       -4.1395365069
  H        12.1763892116        1.3574479363       -4.1311731340
  H         2.9465736644        1.8475379250       -7.3314091814
  H         5.9118336139        3.1192649516       -8.9940093810
  H         5.5290232904        2.0332759633      -10.3779732608
  H         4.9191099355        3.7174731778      -10.3726996629
  H         1.8477587129        2.1167196471       -9.1607819727
  H         2.5359656999        3.1371058849      -10.4815839448
  H         2.8056299094        1.3544443239      -10.4878059452
  H         7.8464940735       -1.4953658037       -5.6238969856
  H         7.5880107286       -3.8055937960       -4.5439703648
  H         6.0822814245       -3.9758912255       -2.4752330355
  H         5.2371096397       -1.8608818964       -1.3769101518
  H         5.7099366146       -0.1788383920       -0.2325387122
  H         5.7040887040        2.0901301672        0.8856028126
  H         6.1941296564        4.1811500277       -0.5177128593
  H         6.5886823381        3.8577967428       -3.0215323317
  H         6.6251601301       -4.0461289738       -8.1987323737
  H         4.2486783496       -5.8696589346       -8.9939647140
  H         5.7663118808       -6.5706402989       -8.6312746894
  H         4.7742685978       -6.6567928073       -6.4846070843
  H         5.6746621318       -5.1427688230       -6.3271119662
  H         3.9182957756       -5.1231215267       -6.6636047129
  H         7.3814291222       -5.8107304321       -9.8057668070
  H         6.1479193072       -5.3990372815      -10.9592865764
  H         8.3382558834       -3.3885283952      -10.0406940327
  H         8.5132366159       -4.4468705268      -11.4383642371
  H         7.2368609189       -3.2211832111      -11.4690120118
  H         2.4197577922       -2.8557980593       -0.7864481385
  H         0.7518615551       -2.5455018650       -1.1983580137
  H         2.0303284757       -3.9246745064       -2.9425345583
  H         1.2637973537       -2.4812126414       -3.6416161421
  H         3.0259154825       -2.4980164439       -3.3378348335
     165
 i =        3, E =      -790.3991085314
  C         2.6192317703        0.6208402657        0.8443116394
  C         1.7094606265       -0.4477046267        0.2158844762
  C         2.0106797884       -0.8187676186       -1.2586505656
  O         1.1174925777       -0.0609960496       -2.1748563195
  C         1.4083206216        1.2664657881       -2.2786038154
  C         0.6885796842        2.2526682368       -1.5488856513
  C         1.0496027523        3.6168449196       -1.5833673382
  C         2.1233115534        4.0648453685       -2.3916698580
  C         2.7527904537        3.1196739339       -3.1885220688
  C         2.3982568370        1.7366743838       -3.1529177740
  C         3.1795057491        1.0882930797       -4.2052581904
  N         2.9904676608       -0.1471805311       -4.7002914592
  C         3.7174580931       -0.6581019779       -5.7128792586
  C         3.1931332321       -1.6803836566       -6.6134710230
  C         1.9203816300       -2.2286003678       -6.6770712960
  C         1.6888444623       -3.1499641794       -7.7241815315
  C         2.7175901074       -3.4748726627       -8.6330009766
  C         4.0492034513       -2.9718597501       -8.5435952572
  C         4.2339468295       -1.9995472642       -7.5417536308
  C         5.3269511389       -1.0853745023       -7.2282096064
  N         4.9878727168       -0.3394291776       -6.1128122705
 Dy         6.1498934730        1.3197325945       -5.1805765227
  N         4.0336765981        2.0286198636       -4.7800226322
  C         3.8045639655        3.2612536781       -4.2036764289
  N         4.3740321214        4.4243737562       -4.5634567039
  C         5.5122826432        4.5398591224       -5.2615929368
  N         6.4685895907        3.5497568905       -5.4222626910
  C         7.4375492413        4.0131429930       -6.2801143317
  N         8.3651766219        3.3553472781       -7.0102254867
  C         8.2498730070        2.0878557059       -7.4405312159
  N         7.3093118223        1.1559564092       -7.0409969910
  C         7.2795104617        0.0997919453       -7.9164178802
  N         6.4113463510       -0.9323429039       -8.0015225366
  C         8.3477959889        0.3017636241       -8.8905358863
  C         9.0022336493        1.5231665901       -8.5581147749
  C        10.0348128330        2.0415381666       -9.3535322967
  C        10.3276833745        1.2771201327      -10.5277842254
  C         9.6893050898        0.0571601501      -10.8389120371
  C         8.6691495467       -0.4569230818      -10.0036822257
  O        10.5906410216        3.2434515787       -9.0697122021
  C        11.9567814587        3.3119504708       -8.4653728225
  C        11.8835478905        3.1861509961       -6.9269837875
  C        11.4786292245        4.4803961608       -6.2131228732
  C        12.9579718824        2.3484954325       -9.1221969874
  C        13.4763001803        2.8306544226      -10.4902030549
  C         7.2222309054        5.4406370380       -6.5229466509
  C         5.9626110790        5.7549760511       -5.9359759953
  C         5.4403913227        7.0509794218       -6.0528898737
  C         6.3258319108        8.0478486915       -6.5535663420
  C         7.5684894930        7.7228989359       -7.1289126538
  C         8.0306676486        6.3842373664       -7.1461584225
  O         4.1843309798        7.3811442043       -5.6694559040
  C         3.1102108262        7.0738571223       -6.6572530434
  C         1.7899822230        7.3997262737       -5.9629703493
  C         1.4793818902        6.5837447826       -4.7065178242
  C         3.2813270047        7.9128071457       -7.9462159499
  C         4.1016956275        7.2802544943       -9.0904198125
  O         8.3562260735        1.6946327117       -4.5451142345
  C         9.4926768449        1.1597785921       -4.5413644034
  N        10.2233055318        0.9615455187       -3.4436165267
  C         9.6476041772        1.2291817754       -2.1161782424
  C        11.6293381115        0.5567217264       -3.5960711389
  O         5.0051884507        2.2146222326       -7.1302062088
  C         3.9450165803        2.1488551616       -7.7882532976
  N         3.9069130698        2.4432270980       -9.0918886832
  C         5.1476515807        2.8570278158       -9.7607890782
  C         2.6842891108        2.2517088046       -9.8618562158
  N         6.2356335574        1.8098695460       -2.9013132524
  C         6.0377726418        0.6890233851       -2.1619356343
  C         6.1899966976       -0.6215139461       -2.8645479428
  N         6.8799078801       -0.5656017308       -4.0376690311
  C         7.3179501674       -1.6851838832       -4.6468506185
  C         7.1263455054       -2.9531808104       -4.0794601259
  C         6.2966572365       -3.0404643885       -2.9276710849
  C         5.8445471604       -1.8629097117       -2.2974072499
  C         5.8273766431        0.7694223004       -0.7761942669
  C         5.8569238757        2.0362701474       -0.1594429889
  C         6.1473673596        3.1891536530       -0.9316587728
  C         6.3321904459        3.0187463155       -2.3150875145
  O         5.0122331048       -3.3812801086       -9.4094617562
  C         5.9463798818       -4.4967057695       -8.9846015675
  C         5.1726009350       -5.6926863946       -8.4071467754
  C         4.8619149954       -5.6350653714       -6.9017797135
  C         6.7918455043       -4.9583104262      -10.1827518123
  C         7.7489691528       -3.9381828001      -10.8061186409
  C         1.7826189873       -2.3127130290       -1.5033661388
  C         2.0395747723       -2.8209204671       -2.9260863266
  H         2.5665061952        0.5734351508        1.9454449501
  H         3.6829790123        0.4743434786        0.5835298500
  H         2.3688478937        1.6586582149        0.5595750957
  H         1.7758825278       -1.3759762918        0.8028235320
  H         0.6516743621       -0.1412390629        0.2722869513
  H         3.0589158014       -0.5480775212       -1.5361248445
  H        -0.0981474941        1.9064278437       -0.8785897319
  H         0.5287924829        4.3283908706       -0.9447388776
  H         2.4311473507        5.1126378175       -2.4647679874
  H         1.1712716735       -1.9390405839       -5.9327105386
  H         0.7023440530       -3.5945411899       -7.8365377526
  H         2.5224589585       -4.1825991416       -9.4365102244
  H        11.0570030400        1.6909266710      -11.2197428748
  H         9.9704834538       -0.4987859293      -11.7315894168
  H         8.1110763825       -1.3814344149      -10.1861785210
  H        12.2306745306        4.3513423049       -8.7253440156
  H        11.1889673536        2.3634841937       -6.6703863313
  H        12.8814257632        2.8673857985       -6.5817365089
  H        11.5198395096        4.3569735635       -5.1153136986
  H        12.1590619687        5.3162434943       -6.4562577691
  H        10.4527597202        4.7960769599       -6.4644494001
  H        13.7967292681        2.2414785571       -8.4145357636
  H        12.5227119142        1.3340463436       -9.1843687742
  H        13.7622388618        1.9929664137      -11.1480520979
  H        12.7426385752        3.4483504462      -11.0404320525
  H        14.3776398983        3.4569218335      -10.3723481447
  H         5.9519962691        9.0706839033       -6.5643697691
  H         8.1848211900        8.5071487173       -7.5650243628
  H         8.9648526299        6.0643405108       -7.6195329515
  H         3.1799616577        5.9809334677       -6.8760052806
  H         1.8149346435        8.4742163647       -5.7157030670
  H         0.9911192955        7.2592172303       -6.7064073393
  H         1.5055861963        5.4913850622       -4.8818329618
  H         2.1780638417        6.7963690875       -3.8791702481
  H         0.4653425644        6.8200760031       -4.3397714163
  H         2.2583436309        8.1177881166       -8.2951998825
  H         3.6919218460        8.8970513803       -7.6642747469
  H         4.0583100370        6.1726460380       -9.0976019764
  H         3.7001924742        7.6058860912      -10.0661956190
  H         5.1702567390        7.5574098196       -9.0905417816
  H         9.9534067388        0.8079611309       -5.4916903874
  H         9.4304655700        0.2650828258       -1.6205040157