     233
 i =        1, E =     -1123.3521800531
  C         8.2602496181        1.0659969820       -8.7919839846
  C         6.7923950620        0.5958469085       -8.7199506910
  O         6.0456798001        1.1008955752       -9.8588794815
  C         4.7405679187        0.6898530666       -9.8139767306
  C         3.8022830231        1.4724960034       -9.1025792353
  C         2.4663966363        1.0723557372       -9.2227508998
  C         2.0974786207       -0.0862875304       -9.9130014448
  C         2.9893265290       -0.8596292316      -10.6573190713
  C         4.3422345645       -0.4646328210      -10.5592012055
  O         5.2983300765       -1.2705097977      -11.1143473011
  C         5.4886933665       -0.9925641291      -12.5277838100
  C         6.5524083583       -1.9245373257      -13.1124354723
  C         0.7097130844       -0.2554518604       -9.6937302764
  N         0.0439801437       -1.2315920307      -10.2659252222
  C        -1.2133970292       -1.4731076047       -9.9231220843
  N        -1.9662182545       -0.8717740303       -8.9464444583
 Dy        -1.8783577527        1.2860240747       -8.0014235711
  N         0.2671524827        0.7033776673       -8.8446208547
  C         1.2824934201        1.5618726772       -8.6113132813
  N         1.4412165921        2.3892715408       -7.5600364373
  C         0.8556859348        2.0152754319       -6.4113674960
  C         1.6940908628        1.8493759529       -5.2679887838
  C         3.0324699014        2.2027687923       -5.0568224945
  C         3.6017823821        1.7695611310       -3.8400678250
  O         4.8552706413        2.1847876079       -3.4815464766
  C         5.9086812727        1.4587538633       -4.1703837391
  C         7.2708331944        1.9975512067       -3.7460150223
  C         2.8794748395        0.9340047128       -2.9285856878
  C         1.5311188448        0.5758870471       -3.1662414678
  C         0.9897964856        1.0376744477       -4.3675357727
  C        -0.2650346613        0.7435590526       -4.9843295082
  N        -1.1459906727       -0.0531372036       -4.4111717662
  C        -2.2139058910       -0.4648802335       -5.0888705628
  N        -2.4817658342       -0.3372746899       -6.4068058134
  C        -3.5948422993       -1.0876370887       -6.6550974601
  N        -3.9827309661       -1.6024271595       -7.8077039673
  C        -3.1157520511       -1.6086241748       -8.8217239147
  C        -3.1316859442       -2.6602562811       -9.7790476223
  C        -1.8914905725       -2.6188830819      -10.4237982089
  C        -1.4410970979       -3.6353062812      -11.2696686452
  C        -2.3173050368       -4.7319161679      -11.4081621879
  O        -1.9108826191       -5.7773040676      -12.1926751273
  C        -1.3014025063       -6.8117246862      -11.3637316139
  C        -0.9479472134       -8.0198769140      -12.2214285367
  C        -3.6082907532       -4.7487029415      -10.7860363278
  C        -4.0382378677       -3.7079789737       -9.9372900686
  O        -4.4324299927       -5.8328738509      -10.9131676285
  C        -5.2431804996       -5.7527476396      -12.1182924887
  C        -6.1654985617       -6.9666665192      -12.2137010541
  C        -4.0624060074       -1.6793982974       -5.4616287363
  C        -3.0657764221       -1.4427114524       -4.5139087751
  C        -2.9806665073       -2.1422834089       -3.3069544615
  C        -3.9843052455       -3.1182170753       -3.1194335244
  C        -5.0927153217       -3.2365074452       -4.0217002597
  C        -5.1504490001       -2.5180340491       -5.2307535873
  O        -6.0549643169       -4.1893112013       -3.8373832031
  C        -7.0704180022       -3.7834791399       -2.8816237872
  C        -8.0873820042       -4.9095075698       -2.6864842624
  O        -3.9174797658       -3.9263233084       -2.0109832381
  C        -3.2623469658       -5.1720744048       -2.4102650101
  C        -3.1323018802       -6.1285792663       -1.2279089819
  N        -0.2797418130        1.2564712241       -6.2531350624
  O         3.5409763790        0.3952473813       -1.8616661253
  C         3.2545915547        1.0667043478       -0.6061694491
  C         4.0570091924        0.4165848246        0.5178019948
  N        -3.9893479162        1.9503058229       -7.1584865826
  C        -5.1793047574        1.4036511454       -7.5449560427
  N        -5.6044096349        1.1891026262       -8.7988849923
  C        -4.7633920668        1.2082280560       -9.8192692503
  N        -3.3992192008        1.3064245178       -9.7942207441
  C        -2.9504999556        1.2582086466      -11.0795831904
  N        -1.7181234005        1.4847096381      -11.5500682959
  C        -0.9410375310        2.3653398640      -10.8973768089
  N        -1.2539576879        2.8771450610       -9.6621040827
  C        -0.5944929209        4.0539368660       -9.5501833882
  N        -0.5137524991        4.8446756591       -8.5115663862
  C        -0.9758871807        4.4775468659       -7.3287323124
  N        -1.8475123831        3.4541371080       -7.0344640703
  C        -2.2486035505        3.6261438147       -5.7288120320
  N        -3.3069032696        3.0698262029       -5.1384909492
  C        -4.1411169202        2.3328749245       -5.8493033414
  C        -5.4866515595        2.1323875970       -5.4329178237
  C        -6.1689348958        1.6447288777       -6.5556436531
  C        -7.5507647881        1.4436766280       -6.6372313102
  C        -8.2461463676        1.8412015067       -5.4826378037
  C        -7.6016867357        2.3397498766       -4.3328016260
  C        -6.1912839402        2.4189999108       -4.2450431934
  O        -5.5498265159        2.7949087471       -3.0923746050
  C        -5.3630999864        1.8398038065       -1.9856546109
  C        -4.0818809705        1.0253743833       -2.2783793022
  C        -2.7684076606        1.7521115290       -1.9495756349
  C        -6.6152683814        0.9653804112       -1.6900345767
  C        -7.7187693476        1.7016828708       -0.9035920887
  C        -1.6043742318        4.7683896535       -5.1604100118
  C        -0.8872702223        5.3503330049       -6.2148879296
  C        -0.2013554707        6.5695832063       -6.0883456794
  C        -0.1915513354        7.1267277676       -4.7809166543
  C        -0.8956133841        6.5045110399       -3.7272080036
  C        -1.6611807396        5.3256165000       -3.8787526895
  O         0.2908058086        7.1021745350       -7.2439100712
  C         1.5167577107        7.8830275030       -7.1945545799
  C         2.6963543078        6.9070378593       -7.4371822493
  C         3.0528364857        5.9718872792       -6.2672268216
  C         1.3902872117        8.9445302556       -8.3039501180
  C         0.1702535316        9.8735449426       -8.2086987174
  C        -0.0852073324        4.4511287845      -10.8091956201
  C        -0.2318976228        3.3403074891      -11.6522945643
  C         0.1980457671        3.3998310787      -12.9942279695
  C         0.7595169841        4.6298111170      -13.4040572237
  C         0.9176402423        5.7152825703      -12.5148171151
  C         0.5330759280        5.6554963773      -11.1628357063
  O         0.1321253903        2.3082172586      -13.8164668187
  C         1.2182090388        1.3496147755      -13.5856375069
  C         0.8148598573        0.1218519889      -14.4237855122
  C        -0.4612531836       -0.6200605995      -14.0036239954
  C         2.5984022098        1.9359027865      -14.0048571140
  C         3.4449247386        2.5366810979      -12.8696394507
  C        -4.0582379036        1.3381125228      -11.9813986503
  C        -5.2039239838        1.3232984951      -11.1726847854
  C        -6.4951720702        1.4426892628      -11.7209017418
  C        -6.5577870308        1.5447715726      -13.1435109370
  C        -5.3858283089        1.5653418988      -13.9264950042
  C        -4.0877282473        1.4665731391      -13.3750912332
  O        -7.5210618901        1.4487747487      -10.8284235677
  C        -8.8418689038        1.0383677717      -11.2884535581
  C        -9.1827126957       -0.2098469902      -10.4470154768
  C        -8.2301681661       -1.4094712369      -10.6001535109
  C        -9.8103888795        2.2101717952      -11.0595892298
  C        -9.4335775005        3.5189831960      -11.7762807284
  H         8.6728279235        1.2054260406       -7.7841789241
  H         8.8731004529        0.3357933121       -9.3314435705
  H         8.2842158587        2.0275099703       -9.3181459002
  H         6.7435599080       -0.5097267404       -8.7161690043
  H         6.3184877443        0.9398905017       -7.7800659768
  H         4.0712587304        2.3779903156       -8.5562570198
  H         2.6411189943       -1.7334927888      -11.2099031292
  H         4.5316588395       -1.1288607767      -13.0688308604
  H         5.7823838438        0.0660166129      -12.6515463981
  H         7.0905973910       -2.3797527605      -12.2728961941
  H         6.0968112465       -2.7103707296      -13.7239426309
  H         7.2644874115       -1.3563745555      -13.7234122018
  H         3.5641522813        2.8463646380       -5.7580196708
  H         5.8117940310        0.3866112148       -3.9211710910
  H         5.7817848111        1.5613544393       -5.2663138171
  H         7.3231529508        1.9983369644       -2.6509322884
  H         8.0640791958        1.3444543199       -4.1374316137
  H         7.4093273161        3.0127110839       -4.1347796610
  H         0.9385784878       -0.0436962826       -2.4918222008
  H        -0.4666984867       -3.5732873884      -11.7551985615
  H        -0.3864260611       -6.3989110652      -10.8952236330
  H        -1.9885511847       -7.0946027822      -10.5447896585
  H        -0.7127266792       -8.8763063513      -11.5738533715
  H        -1.8182768374       -8.2703824251      -12.8387518239
  H        -0.0815774764       -7.7956169511      -12.8530197253
  H        -4.9996640391       -3.7055074312       -9.4238787639
  H        -5.8327625104       -4.8170651240      -12.0959059766
  H        -4.5761740052       -5.7037340396      -12.9995271218
  H        -6.4287994735       -7.2837621343      -11.1976864882
  H        -7.0857175977       -6.6984193039      -12.7502572850
  H        -5.6674745827       -7.7841977980      -12.7458035718
  H        -2.1679330371       -1.9582698805       -2.6034311399
  H        -5.9564321604       -2.6156635178       -5.9580998939
  H        -6.5869739651       -3.5134816078       -1.9244414545
  H        -7.5722132231       -2.8703201777       -3.2571556511
  H        -8.2466173111       -5.1021691914       -1.6193717616
  H        -9.0427596118       -4.6606420649       -3.1611760878
  H        -7.6698321321       -5.8090471765       -3.1543876911
  H        -3.8492217640       -5.6328571485       -3.2256271632
  H        -2.2571284256       -4.9452570764       -2.8153514424
  H        -3.1611021580       -7.1652653978       -1.5924329934
  H        -2.1893042203       -5.9712447040       -0.6939351132
  H        -3.9827226232       -5.9743791949       -0.5546346431
  H         3.5295843266        2.1333545390       -0.7032618531
  H         2.1704440842        1.0187459042       -0.3926092433
  H         3.9688633467       -0.6723152621        0.4270048386
  H         5.1085190297        0.7177755851        0.4531301915
  H         3.6527944634        0.7270823284        1.4912485576
  H        -7.9996319609        1.0142022612       -7.5335690628
  H        -9.3298114554        1.7511058179       -5.4806405362
  H        -8.1642491914        2.7002936545       -3.4722694552
  H        -5.2020932321        2.4968843215       -1.1310049765
  H        -4.1274190354        0.0961801264       -1.6782758545
  H        -4.0627616380        0.6914830307       -3.3343180355
  H        -2.6423545976        1.8128967855       -0.8614199436
  H        -1.9162185296        1.2032573740       -2.3760035347
  H        -2.8065708258        2.7547445100       -2.3916958764
  H        -7.0378532446        0.5090639184       -2.6057267288
  H        -6.2577852289        0.1233097170       -1.0683753456
  H        -7.5753909173        1.5914643675        0.1787946260
  H        -7.7016893646        2.7667675047       -1.1631475952
  H        -8.7028028245        1.2844889073       -1.1557328703
  H         0.3173822328        8.0731546411       -4.6116487130
  H        -0.8792843971        6.9556202674       -2.7354756897
  H        -2.2468945569        4.8466599130       -3.0932406200
  H         1.6472434713        8.3520089111       -6.2123759017
  H         2.4900326383        6.3112215809       -8.3457126802
  H         3.5754362551        7.5351513434       -7.6694349459
  H         2.9678363106        4.9253370573       -6.5839120187
  H         4.0745335190        6.1561123819       -5.9131453590
  H         2.3599884902        6.1443906178       -5.4342266120
  H         2.3181824041        9.5443724139       -8.2742330892
  H         1.3896980370        8.4387683352       -9.2898110767
  H        -0.0567861000       10.0678544017       -7.1537399940
  H         0.3880245345       10.8280219314       -8.7061905187
  H        -0.6916724001        9.4087193394       -8.7000479653
  H         1.0958250965        4.6921074971      -14.4378066872
  H         1.3835747146        6.6331972268      -12.8671382235
  H         0.6472109920        6.4604535423      -10.4344752527
  H         1.2639386673        1.0883026017      -12.5181503485
  H         0.7285974670        0.4369269032      -15.4836586525
  H         1.6679897705       -0.5812722309      -14.3941286096
  H        -0.5043304379       -0.6584704411      -12.9085828811
  H        -1.3354460754       -0.0899157698      -14.3985659982
  H        -0.4548016270       -1.6410992683      -14.4109023265
  H         3.1799756413        1.1200964606      -14.4730796718
  H         2.4384789892        2.6938248402      -14.7931753772
  H         3.8954924310        1.7403593939      -12.2653346707
  H         4.2537475143        3.1518403195      -13.2884816689
  H         2.8192180845        3.1739903408      -12.2335405408
  H        -7.5250914533        1.6748608355      -13.6248935436
  H        -5.4683903261        1.6605001574      -15.0106066885
  H        -3.1649286282        1.4719054535      -13.9580046707
  H        -8.8051290784        0.7438798921      -12.3435428433
  H        -9.2536695558        0.0857033729       -9.3833942982
  H       -10.2051382099       -0.5188749614      -10.7367616551
  H        -7.9236929335       -1.7769781760       -9.6127968454
  H        -8.7139721235       -2.2258821145      -11.1477785253
  H        -7.3354005099       -1.0821256343      -11.1421668414
  H       -10.8005790612        1.8650455242      -11.4054391919
  H        -9.8916739971        2.3852292557       -9.9718759813
  H        -9.2018933980        4.2963648025      -11.0393645147
  H        -8.5535155255        3.3649294379      -12.4111909749
  H       -10.2668560669        3.8669995887      -12.3971608056
     233
 i =        2, E =     -1123.3963778322
  C         8.2543493471        1.0699571606       -8.8063248742
  C         6.8160605524        0.5869400555       -8.7017957695
  O         6.0744200481        1.0902625892       -9.8572158610
  C         4.7638896009        0.6981120147       -9.8373952572
  C         3.8329348761        1.4908598692       -9.1303377511
  C         2.5004455122        1.1186425031       -9.2875277805
  C         2.1259818356       -0.0642596376       -9.9616541450
  C         3.0145621372       -0.8713644981      -10.6567438915
  C         4.3691891979       -0.4893456981      -10.5464695420
  O         5.3360633093       -1.2561487183      -11.1293664980
  C         5.4956118151       -0.9878081197      -12.5585278957
  C         6.5573297259       -1.9347865855      -13.1050777277
  C         0.7106820659       -0.2613820569       -9.7065476802
  N         0.0496909181       -1.2479954798      -10.3193245128
  C        -1.1954419227       -1.5136334810       -9.9045856656
  N        -1.9374302940       -0.8912359065       -8.9253081267
 Dy        -1.8838755218        1.2860456311       -7.9972626881
  N         0.2418308966        0.7251577256       -8.8593425036
  C         1.3151548345        1.5133527914       -8.5372320423
  N         1.4752544351        2.4269052869       -7.5485079075
  C         0.8952311749        1.9361492196       -6.4308251029
  C         1.7011808459        1.9242208226       -5.2135714259
  C         3.0484347126        2.2348653229       -5.0264846743
  C         3.6209236686        1.7713001772       -3.8225423813
  O         4.8757379973        2.1785828052       -3.4663397436
  C         5.9230924443        1.4471903500       -4.1763125775
  C         7.2609097632        2.0074399618       -3.7384151522
  C         2.9002175578        0.9157774020       -2.9185181566
  C         1.5423511170        0.5875737829       -3.1417369644
  C         0.9975818086        1.0858601030       -4.3195086639
  C        -0.2356504813        0.7059688585       -4.9985578966
  N        -1.1420389250       -0.0263085172       -4.3565362461
  C        -2.1386373666       -0.5446978391       -5.0879054918
  N        -2.4835786840       -0.3081557121       -6.3920212032
  C        -3.5788187082       -1.1180286979       -6.6594099587
  N        -4.0690840957       -1.5337043221       -7.8591341921
  C        -3.1060935918       -1.6214121615       -8.8226296736
  C        -3.1620562472       -2.6759231689       -9.8156685970
  C        -1.9203258448       -2.6299966556      -10.4815943334
  C        -1.4472329543       -3.6557270359      -11.2917025126
  C        -2.3358006819       -4.7403476259      -11.4543190329
  O        -1.9229493743       -5.8094858489      -12.1992685343
  C        -1.2890455095       -6.8317822919      -11.3541101081
  C        -0.9532208578       -8.0154834538      -12.2370692920
  C        -3.6091604235       -4.7907494771      -10.7744529364
  C        -4.0580696671       -3.7263930916       -9.9611769472
  O        -4.4351556368       -5.8684203959      -10.9314777130
  C        -5.2546274483       -5.7542262825      -12.1426143047
  C        -6.1581095261       -6.9751461301      -12.2050207249
  C        -4.1122085377       -1.6654363433       -5.4278825544
  C        -3.1259557621       -1.4111755335       -4.4518069470
  C        -2.9967434968       -2.1573103232       -3.2834546413
  C        -4.0254606385       -3.1000720268       -3.0714486646
  C        -5.0908740164       -3.2896291627       -4.0297576746
  C        -5.1688724976       -2.5383923969       -5.2189764730
  O        -6.0671534940       -4.2141917413       -3.8007025894
  C        -7.0902414691       -3.7718653260       -2.8535933712
  C        -8.0844506245       -4.9170203493       -2.6933647389
  O        -3.9154544499       -3.9551347082       -2.0078773970
  C        -3.2518098977       -5.2052006476       -2.4155350804
  C        -3.1376188378       -6.1232593343       -1.2100887455
  N        -0.3060976044        1.3035235188       -6.2398040846
  O         3.5748549144        0.4127131134       -1.8469838450
  C         3.2519160858        1.0784430107       -0.5842618080
  C         4.0625555192        0.4072172178        0.5077049087
  N        -3.9947279076        1.9025449607       -7.1494062276
  C        -5.2330998060        1.5606660391       -7.6084470837
  N        -5.6157436830        1.1184706160       -8.8118875825
  C        -4.7711594863        1.2706518060       -9.8248654327
  N        -3.3870181267        1.2244816971       -9.7928608913
  C        -2.9470026165        1.3224561416      -11.0789373223
  N        -1.7046517923        1.4453908860      -11.5871960488
  C        -1.0703863831        2.4406816928      -10.9504927175
  N        -1.2139987766        2.8424142869       -9.6469581670
  C        -0.6765615560        4.0999421987       -9.5626359148
  N        -0.4276167505        4.8572383835       -8.4846718493
  C        -1.0811440880        4.5598366311       -7.3554443843
  N        -1.8213644362        3.4460426990       -7.0361814821
  C        -2.2874739636        3.6639863280       -5.7606762425
  N        -3.2524831362        3.0020542474       -5.0650810721
  C        -4.1655470520        2.3835818990       -5.8582643997
  C        -5.5202486095        2.1135802486       -5.3958753080
  C        -6.1961560064        1.5469457066       -6.5068153287
  C        -7.5804889116        1.4317569851       -6.6060987257
  C        -8.2938812176        1.8486480190       -5.4662672786
  C        -7.6263945964        2.3327397488       -4.3221097186
  C        -6.2121598276        2.4097901909       -4.2086700928
  O        -5.5742691598        2.8230305409       -3.0796650009
  C        -5.3662911806        1.8375155893       -1.9871675784
  C        -4.0890750823        1.0241936107       -2.2637199372
  C        -2.7839038107        1.7605102560       -1.9471336933
  C        -6.6057530391        0.9731279802       -1.6826225263
  C        -7.7171225717        1.7092551091       -0.9154157639
  C        -1.5962610615        4.7823073797       -5.1344392180
  C        -0.8463429170        5.3555900612       -6.1802638993
  C        -0.2046283361        6.5921326310       -6.0611529037
  C        -0.1868697684        7.1527895667       -4.7517998751
  C        -0.8882607850        6.5270150621       -3.7008413033
  C        -1.6523075645        5.3435960455       -3.8638709177
  O         0.3080158735        7.1151215128       -7.1899198319
  C         1.5409672580        7.8955305777       -7.2079783763
  C         2.7073386530        6.9145863288       -7.4449816365
  C         3.0398574430        5.9780885081       -6.2680979394
  C         1.4034487407        8.9500447035       -8.3062140542
  C         0.1739402249        9.8600954498       -8.1975435490
  C        -0.0036676148        4.4428909830      -10.8129035963
  C        -0.1347909896        3.3177582351      -11.6602137872
  C         0.2279274269        3.4151584777      -13.0154617998
  C         0.7498398544        4.6630088029      -13.4320679984
  C         0.9393323568        5.7446484648      -12.5438603977
  C         0.5296518802        5.6696586384      -11.1990994687
  O         0.1660453884        2.3306684315      -13.8386732537
  C         1.2216953650        1.3247478823      -13.6029439570
  C         0.8316577486        0.1061802462      -14.4353707975
  C        -0.4529936116       -0.6030329891      -13.9989641634
  C         2.5888041291        1.9308684755      -14.0076838649
  C         3.4288419986        2.5356519940      -12.8747265556
  C        -4.0644865329        1.2751895203      -12.0142563455
  C        -5.2179160891        1.3026053119      -11.2017556107
  C        -6.5032564106        1.4248955694      -11.7451686005
  C        -6.5731719917        1.5531764707      -13.1673308178
  C        -5.4019612755        1.5627627043      -13.9462739783
  C        -4.1003456268        1.4519050433      -13.3942317360
  O        -7.5287481144        1.4627657261      -10.8824716019
  C        -8.8672661007        1.0236019809      -11.2785663847
  C        -9.2059205808       -0.2171238513      -10.4386278176
  C        -8.2284078155       -1.3953027499      -10.6079062293
  C        -9.8157177526        2.2006087689      -11.0608647956
  C        -9.4320646923        3.5111373932      -11.7747569208
  H         8.6704754912        1.1987472130       -7.7919747092
  H         8.8851654518        0.3456172685       -9.3428106209
  H         8.2992588523        2.0443201984       -9.3179107504
  H         6.7271954315       -0.5192992296       -8.6930794326
  H         6.3064494063        0.9304018416       -7.7752837457
  H         4.0985178807        2.3826659368       -8.5589414797
  H         2.6688931997       -1.7500583863      -11.2079875345
  H         4.5124068264       -1.0969980287      -13.0691036772
  H         5.7630722006        0.0834940451      -12.6491016083
  H         7.1152328161       -2.3954862725      -12.2754542967
  H         6.1136809132       -2.7289436789      -13.7231752999
  H         7.2682088192       -1.3690908049      -13.7277821874
  H         3.5854105657        2.8479879805       -5.7525637282
  H         5.8050883078        0.3704298409       -3.9406080048
  H         5.7695287793        1.5339818463       -5.2764563798
  H         7.3421992282        2.0064634959       -2.6401964405
  H         8.0574775066        1.3526576595       -4.1357696090
  H         7.4267043601        3.0262333119       -4.1218649877
  H         0.9618240181       -0.0637672549       -2.4816104482
  H        -0.4591558974       -3.6028106713      -11.7584465261
  H        -0.3924244929       -6.3906695326      -10.8636886088
  H        -1.9903190707       -7.0821332793      -10.5326239524
  H        -0.7094326361       -8.8695160318      -11.5802110964
  H        -1.8202148744       -8.2936439086      -12.8566546373
  H        -0.0810448729       -7.8103415818      -12.8761554670
  H        -5.0092370095       -3.7357629126       -9.4223720831
  H        -5.8196289395       -4.7986230171      -12.1019924855
  H        -4.5743148679       -5.6695642202      -13.0154875395
  H        -6.4480000236       -7.2992631612      -11.1924115892
  H        -7.0787789508       -6.7079323962      -12.7516561482
  H        -5.6769372264       -7.8098505401      -12.7356796854
  H        -2.1658177027       -1.9882210232       -2.5904187094
  H        -5.9681538287       -2.6529149276       -5.9546095569
  H        -6.5727032096       -3.4908000836       -1.9164137206
  H        -7.5561078011       -2.8428979234       -3.2469024167
  H        -8.2593302722       -5.1135865356       -1.6245259234
  H        -9.0522808974       -4.6837047465       -3.1619833275
  H        -7.6843075493       -5.8360128165       -3.1492981253
  H        -3.8466250088       -5.6278892344       -3.2487235058
  H        -2.2630829736       -4.9399666310       -2.8514266967
  H        -3.1562276125       -7.1618411558       -1.5855308669
  H        -2.1935937829       -5.9727206019       -0.6650305847
  H        -3.9938348757       -5.9894543004       -0.5310767622
  H         3.5010029906        2.1529385622       -0.7045581580
  H         2.1576025298        1.0375460906       -0.3994476640
  H         3.9771697852       -0.6893461461        0.4443700601
  H         5.1222964037        0.7009262896        0.4616348355
  H         3.6601529711        0.7276633660        1.4845829344
  H        -8.0104558661        1.0324137094       -7.5309585372
  H        -9.3772168444        1.7601039763       -5.4667040709
  H        -8.1883312674        2.6854952039       -3.4596200869
  H        -5.1814105984        2.4978519175       -1.1250752968
  H        -4.1356109701        0.0644001479       -1.7008696010
  H        -4.0961792977        0.6699015378       -3.3177976754
  H        -2.6284550642        1.8358366741       -0.8576327389
  H        -1.9171440073        1.2150658026       -2.3640037471
  H        -2.7838929161        2.7707655368       -2.3881037914
  H        -7.0007272787        0.4794281605       -2.6013515610
  H        -6.2554405870        0.0913587886       -1.1015423845
  H        -7.5803277796        1.6126983818        0.1751557490
  H        -7.7314937938        2.7879759381       -1.1469795396
  H        -8.7156080903        1.2965009623       -1.1407505027
  H         0.3255211433        8.0973897703       -4.5891464233
  H        -0.8686270092        6.9939409651       -2.7184383802
  H        -2.2402600196        4.8661673444       -3.0768701399
  H         1.6388746592        8.3744193341       -6.2174008926
  H         2.4972389178        6.3442086781       -8.3734254727
  H         3.5769785657        7.5472678302       -7.7124148270
  H         2.9648649864        4.9175594616       -6.5616904600
  H         4.0648569852        6.1453727344       -5.8973591793
  H         2.3731254659        6.1153204648       -5.3978304060
  H         2.3467050707        9.5311799526       -8.2927595463
  H         1.4308276784        8.4403832829       -9.2949176339
  H        -0.0852929073       10.0948377265       -7.1502530410
  H         0.3722900998       10.8220127257       -8.7015218461
  H        -0.7152442338        9.4229028438       -8.6800249354
  H         1.1069626430        4.7078280273      -14.4594348460
  H         1.4036735560        6.6596642950      -12.9038299265
  H         0.6452101063        6.4622789159      -10.4529811917
  H         1.2379121151        1.0720578181      -12.5205465049
  H         0.7682147696        0.4318313507      -15.4953890841
  H         1.6975609995       -0.5830928794      -14.4137367545
  H        -0.5346390837       -0.6777000377      -12.9006361770
  H        -1.3581455330       -0.0996996571      -14.3754597267
  H        -0.4661461287       -1.6296540472      -14.4074261646
  H         3.1739487876        1.1348065147      -14.5161395076
  H         2.4406539902        2.6645585856      -14.8296831672
  H         3.8947166208        1.7556802117      -12.2487699038
  H         4.2558525552        3.1491558494      -13.2741977688
  H         2.8425322070        3.1889702238      -12.2057157852
  H        -7.5405603674        1.6728396510      -13.6493257290
  H        -5.4939824859        1.6691583759      -15.0266458496
  H        -3.1707527484        1.4761895553      -13.9685217655
  H        -8.8046591800        0.7532688306      -12.3467512684
  H        -9.2844327601        0.1055149665       -9.3815227062
  H       -10.2417193100       -0.4995390312      -10.7139997386
  H        -7.9113488962       -1.7909769044       -9.6282271164
  H        -8.6914003279       -2.2338784030      -11.1524812623