srun: Job 11424220 step creation temporarily disabled, retrying (Requested nodes are busy)
srun: Step created for job 11424220
 DBCSR| Multiplication driver                                               XSMM
 DBCSR| Multrec recursion limit                                              512
 DBCSR| Multiplication stack size                                           1000
 DBCSR| Maximum elements for images                                    UNLIMITED
 DBCSR| Multiplicative factor virtual images                                   1
 DBCSR| Randmat seed                                                    12341313
 DBCSR| Multiplication size stacks                                             3
 DBCSR| Number of 3D layers                                               SINGLE
 DBCSR| Use MPI memory allocation                                              T
 DBCSR| Use RMA algorithm                                                      F
 DBCSR| Use Communication thread                                               T
 DBCSR| Communication thread load                                             87


  **** **** ******  **  PROGRAM STARTED AT               2023-04-10 15:14:09.941
 ***** ** ***  *** **   PROGRAM STARTED ON        node147.pri.kelvin2.alces.netw
 **    ****   ******    PROGRAM STARTED BY                              40265864
 ***** **    ** ** **   PROGRAM PROCESS ID                                 36206
  **** **  *******  **  PROGRAM STARTED IN /mnt/scratch2/users/40265864/MSc_ML_M
                                           M/ln_replacements/xyz/Dy_L9_L2/geomet
                                           ry_optimisation_2/run-6

 CP2K| version string:                                          CP2K version 4.1
 CP2K| source code revision number:                                    svn:17462
 CP2K| cp2kflags: libint fftw3 libxc parallel mpi3 scalapack libxsmm libderiv_ma
 CP2K|            x_am1=5 libint_max_am=6
 CP2K| is freely available from                            https://www.cp2k.org/
 CP2K| Program compiled at                          Mon 24 Oct 18:14:20 BST 2022
 CP2K| Program compiled on                      login1.pri.kelvin2.alces.network
 CP2K| Program compiled for                                                local
 CP2K| Data directory path                      /users/40265864/source/cp2k/data
 CP2K| Input file name                                         geo-opt-relax.inp

 GLOBAL| Force Environment number                                              1
 GLOBAL| Basis set file name                                 ../BASIS_MOLOPT_UCL
 GLOBAL| Potential file name                                        ../POTENTIAL
 GLOBAL| MM Potential file name                                     MM_POTENTIAL
 GLOBAL| Coordinate file name                                 ../../Dy_L9_L2.xyz
 GLOBAL| Method name                                                        CP2K
 GLOBAL| Project name                                                 dy_complex
 GLOBAL| Preferred FFT library                                             FFTW3
 GLOBAL| Preferred diagonalization lib.                                       SL
 GLOBAL| Run type                                                        GEO_OPT
 GLOBAL| All-to-all communication in single precision                          F
 GLOBAL| FFTs using library dependent lengths                                  F
 GLOBAL| Global print level                                                  LOW
 GLOBAL| Total number of message passing processes                           121
 GLOBAL| Number of threads for this process                                    1
 GLOBAL| This output is from process                                           0
 GLOBAL| CPU model name :  AMD EPYC 7702 64-Core Processor

 MEMORY| system memory details [Kb]
 MEMORY|                        rank 0           min           max       average
 MEMORY| MemTotal            792056776     792056776     792056776     792056776
 MEMORY| MemFree             707748952     707748952     707748952     707748952
 MEMORY| Buffers                354068        354068        354068        354068
 MEMORY| Cached               32925048      32925048      32925048      32925048
 MEMORY| Slab                 16526900      16526900      16526900      16526900
 MEMORY| SReclaimable         14396572      14396572      14396572      14396572
 MEMORY| MemLikelyFree       755424640     755424640     755424640     755424640


 GENERATE|  Preliminary Number of Bonds generated:                             0
 GENERATE|  Achieved consistency in connectivity generation.

 *******************************************************************************
 *******************************************************************************
 **                                                                           **
 **     #####                         ##              ##                      **
 **    ##   ##            ##          ##              ##                      **
 **   ##     ##                       ##            ######                    **
 **   ##     ##  ##   ##  ##   #####  ##  ##   ####   ##    #####    #####    **
 **   ##     ##  ##   ##  ##  ##      ## ##   ##      ##   ##   ##  ##   ##   **
 **   ##  ## ##  ##   ##  ##  ##      ####     ###    ##   ######   ######    **
 **    ##  ###   ##   ##  ##  ##      ## ##      ##   ##   ##       ##        **
 **     #######   #####   ##   #####  ##  ##  ####    ##    #####   ##        **
 **           ##                                                    ##        **
 **                                                                           **
 **                                                ... make the atoms dance   **
 **                                                                           **
 **            Copyright (C) by CP2K developers group (2000 - 2016)           **
 **                                                                           **
 *******************************************************************************


 SCF PARAMETERS         Density guess:                                   RESTART
                        --------------------------------------------------------
                        max_scf:                                             200
                        max_scf_history:                                       0
                        max_diis:                                              4
                        --------------------------------------------------------
                        eps_scf:                                        5.00E-05
                        eps_scf_history:                                0.00E+00
                        eps_diis:                                       1.00E-01
                        eps_eigval:                                     1.00E-05
                        --------------------------------------------------------
                        level_shift [a.u.]:                                 0.00
                        --------------------------------------------------------
                        No outer SCF

 *******************************************************************************
 ***                     STARTING GEOMETRY OPTIMIZATION                      ***
 ***                                   BFGS                                  ***
 *******************************************************************************

 Spin 1

 Number of electrons:                                                        339
 Number of occupied orbitals:                                                339
 Number of molecular orbitals:                                               339

 Spin 2

 Number of electrons:                                                        334
 Number of occupied orbitals:                                                334
 Number of molecular orbitals:                                               334

 Number of orbital functions:                                               2226
 Number of independent orbital functions:                                   2226

 Extrapolation method: initial_guess

 *** WARNING in qs_initial_guess.F:262 :: User requested to restart the   ***
 *** wavefunction from the file named: dy_complex-RESTART.wfn. This file  ***
 *** does not exist. Please check the existence of the file or change     ***
 *** properly the value of the keyword WFN_RESTART_FILE_NAME. Calculation ***
 *** continues using ATOMIC GUESS.                                        ***



 SCF WAVEFUNCTION OPTIMIZATION

  ----------------------------------- OT ---------------------------------------
  Minimizer      : DIIS                : direct inversion
                                         in the iterative subspace
                                         using   7 DIIS vectors
                                         safer DIIS on
  Preconditioner : FULL_SINGLE_INVERSE : inversion of 
                                         H + eS - 2*(Sc)(c^T*H*c+const)(Sc)^T
  Precond_solver : DEFAULT
  stepsize       :    0.08000000                  energy_gap     :    0.08000000
  eps_taylor     :   0.10000E-15                  max_taylor     :             4
  ----------------------------------- OT ---------------------------------------

  Step     Update method      Time    Convergence         Total energy    Change
  ------------------------------------------------------------------------------
     1 OT DIIS     0.80E-01    3.5     0.01349147     -1053.6638378536 -1.05E+03
     2 OT DIIS     0.80E-01    4.1     0.00975489     -1071.1762818395 -1.75E+01
     3 OT DIIS     0.80E-01    4.1     0.00823216     -1083.0003815329 -1.18E+01
     4 OT DIIS     0.80E-01    4.1     0.00694522     -1091.8662729404 -8.87E+00
     5 OT DIIS     0.80E-01    4.1     0.00458340     -1107.1875459851 -1.53E+01
     6 OT DIIS     0.80E-01    4.1     0.00373399     -1111.7242140649 -4.54E+00
     7 OT DIIS     0.80E-01    4.1     0.00264751     -1115.8645450216 -4.14E+00
     8 OT DIIS     0.80E-01    4.1     0.00198613     -1118.0779518017 -2.21E+00
     9 OT DIIS     0.80E-01    4.1     0.00150590     -1119.4845501343 -1.41E+00
    10 OT DIIS     0.80E-01    4.1     0.00117155     -1120.4822674356 -9.98E-01
    11 OT DIIS     0.80E-01    4.1     0.00104565     -1120.8562202519 -3.74E-01
    12 OT DIIS     0.80E-01    4.1     0.00082447     -1121.2672883044 -4.11E-01
    13 OT DIIS     0.80E-01    4.1     0.00063066     -1121.6595600842 -3.92E-01
    14 OT DIIS     0.80E-01    4.1     0.00052162     -1121.9012372026 -2.42E-01
    15 OT DIIS     0.80E-01    4.1     0.00043251     -1122.0653631522 -1.64E-01
    16 OT DIIS     0.80E-01    4.1     0.00039583     -1122.1669724254 -1.02E-01
    17 OT DIIS     0.80E-01    4.1     0.00035492     -1122.2377450259 -7.08E-02
    18 OT DIIS     0.80E-01    4.1     0.00034461     -1122.3111554770 -7.34E-02
    19 OT DIIS     0.80E-01    4.1     0.00030971     -1122.3651721404 -5.40E-02
    20 OT DIIS     0.80E-01    4.1     0.00027549     -1122.4385854905 -7.34E-02
    21 OT DIIS     0.80E-01    4.1     0.00025678     -1122.4814011625 -4.28E-02
    22 OT DIIS     0.80E-01    4.1     0.00022790     -1122.5449436597 -6.35E-02
    23 OT DIIS     0.80E-01    4.1     0.00021856     -1122.5729413297 -2.80E-02
    24 OT DIIS     0.80E-01    4.1     0.00020940     -1122.5930446590 -2.01E-02
    25 OT SD       0.80E-01    4.1     0.00020999     -1122.6148551620 -2.18E-02
    26 OT DIIS     0.80E-01    4.1     0.00020705     -1122.6200965408 -5.24E-03
    27 OT DIIS     0.80E-01    4.1     0.00019791     -1122.6299293727 -9.83E-03
    28 OT DIIS     0.80E-01    4.1     0.00019087     -1122.6535800707 -2.37E-02
    29 OT DIIS     0.80E-01    4.1     0.00018593     -1122.6696062332 -1.60E-02
    30 OT DIIS     0.80E-01    4.1     0.00018203     -1122.6848631704 -1.53E-02
    31 OT DIIS     0.80E-01    4.1     0.00017858     -1122.7010356195 -1.62E-02
    32 OT DIIS     0.80E-01    4.1     0.00017084     -1122.7220801451 -2.10E-02
    33 OT DIIS     0.80E-01    4.1     0.00016289     -1122.7413562701 -1.93E-02
    34 OT DIIS     0.80E-01    4.1     0.00015293     -1122.7635611877 -2.22E-02
    35 OT DIIS     0.80E-01    4.1     0.00014434     -1122.7795054495 -1.59E-02
    36 OT DIIS     0.80E-01    4.1     0.00014090     -1122.7905297799 -1.10E-02
    37 OT SD       0.80E-01    4.1     0.00014167     -1122.7924070364 -1.88E-03
    38 OT DIIS     0.80E-01    4.1     0.00014056     -1122.7948016605 -2.39E-03
    39 OT DIIS     0.80E-01    4.1     0.00013710     -1122.8010672625 -6.27E-03
    40 OT SD       0.80E-01    4.1     0.00013576     -1122.8074518033 -6.38E-03
    41 OT DIIS     0.80E-01    4.1     0.00013564     -1122.8096590672 -2.21E-03
    42 OT DIIS     0.80E-01    4.1     0.00013505     -1122.8132919758 -3.63E-03
    43 OT DIIS     0.80E-01    4.1     0.00013502     -1122.8142250212 -9.33E-04
    44 OT DIIS     0.80E-01    4.1     0.00013475     -1122.8150329696 -8.08E-04
    45 OT DIIS     0.80E-01    4.1     0.00013446     -1122.8168312973 -1.80E-03
    46 OT DIIS     0.80E-01    4.1     0.00013432     -1122.8178949471 -1.06E-03
    47 OT DIIS     0.80E-01    4.1     0.00013424     -1122.8191981716 -1.30E-03
    48 OT SD       0.80E-01    4.1     0.00013437     -1122.8221208636 -2.92E-03
    49 OT SD       0.80E-01    4.1     0.00013464     -1122.8242866036 -2.17E-03
    50 OT SD       0.80E-01    4.1     0.00013501     -1122.8264620558 -2.18E-03
    51 OT SD       0.80E-01    4.1     0.00013544     -1122.8286498703 -2.19E-03
    52 OT SD       0.80E-01    4.1     0.00013591     -1122.8308520186 -2.20E-03
    53 OT SD       0.80E-01    4.1     0.00013643     -1122.8330700141 -2.22E-03
    54 OT SD       0.80E-01    4.1     0.00013697     -1122.8353050242 -2.24E-03
    55 OT DIIS     0.80E-01    4.1     0.00013753     -1122.8375579341 -2.25E-03
    56 OT SD       0.80E-01    4.1     0.00018330     -1122.8371097056  4.48E-04
    57 OT SD       0.80E-01    4.1     0.00017554     -1122.8410331907 -3.92E-03
    58 OT SD       0.80E-01    4.1     0.00017162     -1122.8446789389 -3.65E-03
    59 OT SD       0.80E-01    4.1     0.00016929     -1122.8481820929 -3.50E-03
    60 OT SD       0.80E-01    4.1     0.00016773     -1122.8515992457 -3.42E-03
    61 OT SD       0.80E-01    4.1     0.00016659     -1122.8549585164 -3.36E-03
    62 OT DIIS     0.80E-01   11.6     0.00016570     -1122.8582751254 -3.32E-03
    63 OT DIIS     0.80E-01   11.9     0.00014255     -1122.9239341415 -6.57E-02
    64 OT SD       0.80E-01   11.9     0.00012063     -1122.9448102685 -2.09E-02
    65 OT DIIS     0.80E-01    4.6     0.00011682     -1122.9465240658 -1.71E-03
    66 OT SD       0.80E-01    4.2     0.00014079     -1122.9492615014 -2.74E-03
    67 OT SD       0.80E-01    4.3     0.00013080     -1122.9515461014 -2.28E-03
    68 OT DIIS     0.80E-01    4.3     0.00012377     -1122.9535379949 -1.99E-03
    69 OT DIIS     0.80E-01    4.3     0.00009165     -1122.9716142220 -1.81E-02
    70 OT DIIS     0.80E-01    4.3     0.00009507     -1122.9742092883 -2.60E-03
    71 OT DIIS     0.80E-01    4.3     0.00007612     -1122.9881190217 -1.39E-02
    72 OT DIIS     0.80E-01    4.3     0.00007261     -1122.9922127637 -4.09E-03
    73 OT DIIS     0.80E-01    4.3     0.00006774     -1122.9969651412 -4.75E-03
    74 OT DIIS     0.80E-01    4.3     0.00006661     -1122.9990517388 -2.09E-03
    75 OT DIIS     0.80E-01    4.3     0.00006611     -1122.9999471478 -8.95E-04
    76 OT DIIS     0.80E-01    4.3     0.00006403     -1123.0014114301 -1.46E-03
    77 OT DIIS     0.80E-01    4.3     0.00006211     -1123.0043848002 -2.97E-03
    78 OT DIIS     0.80E-01    4.3     0.00005836     -1123.0088447441 -4.46E-03
    79 OT DIIS     0.80E-01   11.6     0.00005396     -1123.0152084700 -6.36E-03
    80 OT DIIS     0.80E-01    9.4     0.00005134     -1123.0187903316 -3.58E-03
    81 OT DIIS     0.80E-01    4.2     0.00004810     -1123.0227867256 -4.00E-03

  *** SCF run converged in    81 steps ***


  Electronic density on regular grids:       -672.9999999889        0.0000000111
  Core density on regular grids:              675.9999999542       -0.0000000458
  Total charge density on r-space grids:        2.9999999652
  Total charge density g-space grids:           2.9999999652

  Overlap energy of the core charge distribution:               0.00005333249695
  Self energy of the core charge distribution:              -2597.23657311820534
  Core Hamiltonian energy:                                    808.29460816060805
  Hartree energy:                                             976.39202448920787
  Exchange-correlation energy:                               -310.47289958971879

  Total energy:                                             -1123.02278672561124

  Integrated absolute spin density  :                               7.5431843494
  Ideal and single determinant S**2 :                    8.750000      10.090307

 ENERGY| Total FORCE_EVAL ( QS ) energy (a.u.):            -1123.026003009114220


 --------  Informations at step =     0 ------------
  Optimization Method        =                 BFGS
  Total Energy               =     -1123.0260030091
  Used time                  =              379.131
 ---------------------------------------------------

 --------------------------
 OPTIMIZATION STEP:      1
 --------------------------

 Spin 1

 Number of electrons:                                                        339
 Number of occupied orbitals:                                                339
 Number of molecular orbitals:                                               339

 Spin 2

 Number of electrons:                                                        334
 Number of occupied orbitals:                                                334
 Number of molecular orbitals:                                               334

 Number of orbital functions:                                               2226
 Number of independent orbital functions:                                   2226

 Extrapolation method: ASPC


 SCF WAVEFUNCTION OPTIMIZATION

  ----------------------------------- OT ---------------------------------------
  Minimizer      : DIIS                : direct inversion
                                         in the iterative subspace
                                         using   7 DIIS vectors
                                         safer DIIS on
  Preconditioner : FULL_SINGLE_INVERSE : inversion of 
                                         H + eS - 2*(Sc)(c^T*H*c+const)(Sc)^T
  Precond_solver : DEFAULT
  stepsize       :    0.08000000                  energy_gap     :    0.08000000
  eps_taylor     :   0.10000E-15                  max_taylor     :             4
  ----------------------------------- OT ---------------------------------------

  Step     Update method      Time    Convergence         Total energy    Change
  ------------------------------------------------------------------------------
     1 OT DIIS     0.80E-01    3.3     0.00116464     -1122.9636385962 -1.12E+03
     2 OT DIIS     0.80E-01    4.1     0.00086163     -1123.1027836549 -1.39E-01
     3 OT DIIS     0.80E-01    4.1     0.00048664     -1123.2563460638 -1.54E-01
     4 OT DIIS     0.80E-01    4.1     0.00040575     -1123.3060497210 -4.97E-02
     5 OT DIIS     0.80E-01    4.1     0.00032116     -1123.3200532466 -1.40E-02
     6 OT DIIS     0.80E-01    4.1     0.00018517     -1123.3306073942 -1.06E-02
     7 OT DIIS     0.80E-01    4.1     0.00017878     -1123.3367633436 -6.16E-03
     8 OT DIIS     0.80E-01    4.1     0.00012417     -1123.3401545846 -3.39E-03
     9 OT DIIS     0.80E-01    4.1     0.00010124     -1123.3435301632 -3.38E-03
    10 OT DIIS     0.80E-01    4.1     0.00008870     -1123.3455816003 -2.05E-03
    11 OT DIIS     0.80E-01    4.1     0.00008164     -1123.3477799675 -2.20E-03
    12 OT DIIS     0.80E-01    4.1     0.00007038     -1123.3490235807 -1.24E-03
    13 OT DIIS     0.80E-01    4.1     0.00005637     -1123.3504532836 -1.43E-03
    14 OT DIIS     0.80E-01    4.1     0.00004878     -1123.3514992871 -1.05E-03

  *** SCF run converged in    14 steps ***


  Electronic density on regular grids:       -672.9999999892        0.0000000108
  Core density on regular grids:              675.9999999543       -0.0000000457
  Total charge density on r-space grids:        2.9999999651
  Total charge density g-space grids:           2.9999999651

  Overlap energy of the core charge distribution:               0.00003886632805
  Self energy of the core charge distribution:              -2597.23657311820534
  Core Hamiltonian energy:                                    802.93227861457945
  Hartree energy:                                             980.06530508905507
  Exchange-correlation energy:                               -309.11254873883968

  Total energy:                                             -1123.35149928708256

  Integrated absolute spin density  :                               6.2090398884
  Ideal and single determinant S**2 :                    8.750000       9.087893

 ENERGY| Total FORCE_EVAL ( QS ) energy (a.u.):            -1123.352180053069560


 --------  Informations at step =     1 ------------
  Optimization Method        =                 BFGS
  Total Energy               =     -1123.3521800531
  Real energy change         =        -0.3261770440
  Predicted change in energy =        -0.2711964242
  Scaling factor             =         0.0000000000
  Step size                  =         0.2989860288
  Trust radius               =         0.5669178399
  Decrease in energy         =                  YES
  Used time                  =               63.463

  Convergence check :
  Max. step size             =         0.2989860288
  Conv. limit for step size  =         0.1000000000
  Convergence in step size   =                   NO
  RMS step size              =         0.0697091229
  Conv. limit for RMS step   =         0.0100000000
  Convergence in RMS step    =                   NO
  Max. gradient              =         0.0478847574
  Conv. limit for gradients  =         0.1000000000
  Conv. in gradients         =                  YES
  RMS gradient               =         0.0082689819
  Conv. limit for RMS grad.  =         0.0100000000
  Conv. in RMS gradients     =                  YES
 ---------------------------------------------------

 --------------------------
 OPTIMIZATION STEP:      2
 --------------------------

 Spin 1

 Number of electrons:                                                        339
 Number of occupied orbitals:                                                339
 Number of molecular orbitals:                                               339

 Spin 2

 Number of electrons:                                                        334
 Number of occupied orbitals:                                                334
 Number of molecular orbitals:                                               334

 Number of orbital functions:                                               2226
 Number of independent orbital functions:                                   2226

 Extrapolation method: ASPC


 SCF WAVEFUNCTION OPTIMIZATION

  ----------------------------------- OT ---------------------------------------
  Minimizer      : DIIS                : direct inversion
                                         in the iterative subspace
                                         using   7 DIIS vectors
                                         safer DIIS on
  Preconditioner : FULL_SINGLE_INVERSE : inversion of 
                                         H + eS - 2*(Sc)(c^T*H*c+const)(Sc)^T
  Precond_solver : DEFAULT
  stepsize       :    0.08000000                  energy_gap     :    0.08000000
  eps_taylor     :   0.10000E-15                  max_taylor     :             4
  ----------------------------------- OT ---------------------------------------

  Step     Update method      Time    Convergence         Total energy    Change
  ------------------------------------------------------------------------------
     1 OT DIIS     0.80E-01    3.3     0.00180555     -1122.6280635214 -1.12E+03
     2 OT DIIS     0.80E-01    4.1     0.00124960     -1122.9460199879 -3.18E-01
     3 OT DIIS     0.80E-01    4.1     0.00084382     -1123.1940427344 -2.48E-01
     4 OT DIIS     0.80E-01    4.1     0.00091834     -1123.3140775380 -1.20E-01
     5 OT DIIS     0.80E-01    4.1     0.00038677     -1123.3643573851 -5.03E-02
     6 OT DIIS     0.80E-01    4.1     0.00030892     -1123.3844207439 -2.01E-02
     7 OT DIIS     0.80E-01    4.1     0.00019381     -1123.3898411636 -5.42E-03
     8 OT DIIS     0.80E-01    4.1     0.00011578     -1123.3935741974 -3.73E-03
     9 OT DIIS     0.80E-01    4.1     0.00010510     -1123.3947600569 -1.19E-03
    10 OT DIIS     0.80E-01    4.1     0.00006102     -1123.3956650950 -9.05E-04
    11 OT DIIS     0.80E-01    4.1     0.00004430     -1123.3961588834 -4.94E-04

  *** SCF run converged in    11 steps ***


  Electronic density on regular grids:       -672.9999999897        0.0000000103
  Core density on regular grids:              675.9999999542       -0.0000000458
  Total charge density on r-space grids:        2.9999999645
  Total charge density g-space grids:           2.9999999645

  Overlap energy of the core charge distribution:               0.00003418235804
  Self energy of the core charge distribution:              -2597.23657311820534
  Core Hamiltonian energy:                                    800.70134485953747
  Hartree energy:                                             981.64578968987189
  Exchange-correlation energy:                               -308.50675449699509

  Total energy:                                             -1123.39615888343315

  Integrated absolute spin density  :                               5.7230477241
  Ideal and single determinant S**2 :                    8.750000       8.973482

 ENERGY| Total FORCE_EVAL ( QS ) energy (a.u.):            -1123.396377832235430


 --------  Informations at step =     2 ------------
  Optimization Method        =                 BFGS
  Total Energy               =     -1123.3963778322
  Real energy change         =        -0.0441977792
  Predicted change in energy =        -0.0981146676
  Scaling factor             =         0.0000000000
  Step size                  =         0.2967151480
  Trust radius               =         0.5669178399
  Decrease in energy         =                  YES
  Used time                  =               50.989

  Convergence check :
  Max. step size             =         0.2967151480
  Conv. limit for step size  =         0.1000000000
  Convergence in step size   =                   NO
  RMS step size              =         0.0497240540
  Conv. limit for RMS step   =         0.0100000000
  Convergence in RMS step    =                   NO
  Max. gradient              =         0.0364954486
  Conv. limit for gradients  =         0.1000000000
  Conv. in gradients         =                  YES
  RMS gradient               =         0.0065036079
  Conv. limit for RMS grad.  =         0.0100000000
  Conv. in RMS gradients     =                  YES
 ---------------------------------------------------

 --------------------------
 OPTIMIZATION STEP:      3
 --------------------------

 Spin 1

 Number of electrons:                                                        339
 Number of occupied orbitals:                                                339
 Number of molecular orbitals:                                               339

 Spin 2

 Number of electrons:                                                        334
 Number of occupied orbitals:                                                334
 Number of molecular orbitals:                                               334

 Number of orbital functions:                                               2226
 Number of independent orbital functions:                                   2226

 Extrapolation method: ASPC


 SCF WAVEFUNCTION OPTIMIZATION

  ----------------------------------- OT ---------------------------------------
  Minimizer      : DIIS                : direct inversion
                                         in the iterative subspace
                                         using   7 DIIS vectors
                                         safer DIIS on
  Preconditioner : FULL_SINGLE_INVERSE : inversion of 
                                         H + eS - 2*(Sc)(c^T*H*c+const)(Sc)^T
  Precond_solver : DEFAULT
  stepsize       :    0.08000000                  energy_gap     :    0.08000000
  eps_taylor     :   0.10000E-15                  max_taylor     :             4
  ----------------------------------- OT ---------------------------------------

  Step     Update method      Time    Convergence         Total energy    Change
  ------------------------------------------------------------------------------
     1 OT DIIS     0.80E-01    3.3     0.00223594     -1122.2066619706 -1.12E+03
     2 OT DIIS     0.80E-01    4.1     0.00158610     -1122.7056757593 -4.99E-01
     3 OT DIIS     0.80E-01    4.1     0.00111148     -1123.1487331563 -4.43E-01
     4 OT DIIS     0.80E-01    4.1     0.00115249     -1123.2783846325 -1.30E-01
     5 OT DIIS     0.80E-01    4.1     0.00050171     -1123.3917500466 -1.13E-01
     6 OT DIIS     0.80E-01    4.1     0.00044168     -1123.4175360655 -2.58E-02
     7 OT DIIS     0.80E-01    4.1     0.00022221     -1123.4309465197 -1.34E-02
     8 OT DIIS     0.80E-01    4.1     0.00017217     -1123.4362355937 -5.29E-03
     9 OT DIIS     0.80E-01    4.1     0.00012191     -1123.4382027792 -1.97E-03
    10 OT DIIS     0.80E-01    4.1     0.00007340     -1123.4398135918 -1.61E-03
    11 OT DIIS     0.80E-01    4.1     0.00005186     -1123.4405967955 -7.83E-04
    12 OT DIIS     0.80E-01    4.1     0.00004130     -1123.4409760360 -3.79E-04

  *** SCF run converged in    12 steps ***


  Electronic density on regular grids:       -672.9999999890        0.0000000110
  Core density on regular grids:              675.9999999543       -0.0000000457
  Total charge density on r-space grids:        2.9999999653
  Total charge density g-space grids:           2.9999999653

  Overlap energy of the core charge distribution:               0.00003530636153
  Self energy of the core charge distribution:              -2597.23657311820534
  Core Hamiltonian energy:                                    800.90573603584824
  Hartree energy:                                             981.45950128837455
  Exchange-correlation energy:                               -308.56967554836660

  Total energy:                                             -1123.44097603598766

  Integrated absolute spin density  :                               5.6844569838
  Ideal and single determinant S**2 :                    8.750000       8.963293

 ENERGY| Total FORCE_EVAL ( QS ) energy (a.u.):            -1123.441131575885493


 --------  Informations at step =     3 ------------
  Optimization Method        =                 BFGS
  Total Energy               =     -1123.4411315759
  Real energy change         =        -0.0447537437
  Predicted change in energy =        -0.0480896467
  Scaling factor             =         0.0000000000
  Step size                  =         0.1433057019
  Trust radius               =         0.5669178399
  Decrease in energy         =                  YES
  Used time                  =               55.182

  Convergence check :
  Max. step size             =         0.1433057019
  Conv. limit for step size  =         0.1000000000
  Convergence in step size   =                   NO
  RMS step size              =         0.0268498692
  Conv. limit for RMS step   =         0.0100000000
  Convergence in RMS step    =                   NO
  Max. gradient              =         0.0270016891
  Conv. limit for gradients  =         0.1000000000
  Conv. in gradients         =                  YES
  RMS gradient               =         0.0031353341
  Conv. limit for RMS grad.  =         0.0100000000
  Conv. in RMS gradients     =                  YES
 ---------------------------------------------------

 --------------------------
 OPTIMIZATION STEP:      4
 --------------------------

 Spin 1

 Number of electrons:                                                        339
 Number of occupied orbitals:                                                339
 Number of molecular orbitals:                                               339

 Spin 2

 Number of electrons:                                                        334
 Number of occupied orbitals:                                                334
 Number of molecular orbitals:                                               334

 Number of orbital functions:                                               2226
 Number of independent orbital functions:                                   2226

 Extrapolation method: ASPC


 SCF WAVEFUNCTION OPTIMIZATION

  ----------------------------------- OT ---------------------------------------
  Minimizer      : DIIS                : direct inversion
                                         in the iterative subspace
                                         using   7 DIIS vectors
                                         safer DIIS on
  Preconditioner : FULL_SINGLE_INVERSE : inversion of 
                                         H + eS - 2*(Sc)(c^T*H*c+const)(Sc)^T
  Precond_solver : DEFAULT
  stepsize       :    0.08000000                  energy_gap     :    0.08000000
  eps_taylor     :   0.10000E-15                  max_taylor     :             4
  ----------------------------------- OT ---------------------------------------

  Step     Update method      Time    Convergence         Total energy    Change
  ------------------------------------------------------------------------------
     1 OT DIIS     0.80E-01    3.3     0.00198653     -1122.5050884185 -1.12E+03
     2 OT DIIS     0.80E-01    4.1     0.00139603     -1122.8960412466 -3.91E-01
     3 OT DIIS     0.80E-01    4.1     0.00098899     -1123.2258679689 -3.30E-01
     4 OT DIIS     0.80E-01    4.5     0.00098366     -1123.3338622156 -1.08E-01
     5 OT DIIS     0.80E-01    4.2     0.00037303     -1123.4235071224 -8.96E-02
     6 OT DIIS     0.80E-01    6.1     0.00029855     -1123.4446056172 -2.11E-02
     7 OT DIIS     0.80E-01    4.1     0.00022003     -1123.4506396951 -6.03E-03
     8 OT DIIS     0.80E-01    4.1     0.00012745     -1123.4545009444 -3.86E-03
     9 OT DIIS     0.80E-01    4.1     0.00011048     -1123.4556925827 -1.19E-03
    10 OT DIIS     0.80E-01    4.1     0.00005756     -1123.4567281980 -1.04E-03
    11 OT DIIS     0.80E-01    4.1     0.00004260     -1123.4572050643 -4.77E-04

  *** SCF run converged in    11 steps ***


  Electronic density on regular grids:       -672.9999999891        0.0000000109
  Core density on regular grids:              675.9999999542       -0.0000000458
  Total charge density on r-space grids:        2.9999999651
  Total charge density g-space grids:           2.9999999651

  Overlap energy of the core charge distribution:               0.00003572523547
  Self energy of the core charge distribution:              -2597.23657311820534
  Core Hamiltonian energy:                                    800.90227803240327
  Hartree energy:                                             981.43802878211079
  Exchange-correlation energy:                               -308.56097448583029

  Total energy:                                             -1123.45720506428574

  Integrated absolute spin density  :                               5.5659489915
  Ideal and single determinant S**2 :                    8.750000       8.932375

 ENERGY| Total FORCE_EVAL ( QS ) energy (a.u.):            -1123.457416301015655


 --------  Informations at step =     4 ------------
  Optimization Method        =                 BFGS
  Total Energy               =     -1123.4574163010
  Real energy change         =        -0.0162847251
  Predicted change in energy =        -0.0161250840
  Scaling factor             =         0.0000000000
  Step size                  =         0.1757089471
  Trust radius               =         0.5669178399
  Decrease in energy         =                  YES
  Used time                  =               53.671

  Convergence check :
  Max. step size             =         0.1757089471
  Conv. limit for step size  =         0.1000000000
  Convergence in step size   =                   NO
  RMS step size              =         0.0209495345
  Conv. limit for RMS step   =         0.0100000000
  Convergence in RMS step    =                   NO
  Max. gradient              =         0.0297191613
  Conv. limit for gradients  =         0.1000000000
  Conv. in gradients         =                  YES
  RMS gradient               =         0.0023294862
  Conv. limit for RMS grad.  =         0.0100000000
  Conv. in RMS gradients     =                  YES
 ---------------------------------------------------

 --------------------------
 OPTIMIZATION STEP:      5
 --------------------------

 Spin 1

 Number of electrons:                                                        339
 Number of occupied orbitals:                                                339
 Number of molecular orbitals:                                               339

 Spin 2

 Number of electrons:                                                        334
 Number of occupied orbitals:                                                334
 Number of molecular orbitals:                                               334

 Number of orbital functions:                                               2226
 Number of independent orbital functions:                                   2226

 Extrapolation method: ASPC


 SCF WAVEFUNCTION OPTIMIZATION

  ----------------------------------- OT ---------------------------------------
  Minimizer      : DIIS                : direct inversion
                                         in the iterative subspace
                                         using   7 DIIS vectors
                                         safer DIIS on
  Preconditioner : FULL_SINGLE_INVERSE : inversion of 
                                         H + eS - 2*(Sc)(c^T*H*c+const)(Sc)^T
  Precond_solver : DEFAULT
  stepsize       :    0.08000000                  energy_gap     :    0.08000000
  eps_taylor     :   0.10000E-15                  max_taylor     :             4
  ----------------------------------- OT ---------------------------------------

  Step     Update method      Time    Convergence         Total energy    Change
  ------------------------------------------------------------------------------
     1 OT DIIS     0.80E-01    3.3     0.00131602     -1123.0436707285 -1.12E+03
     2 OT DIIS     0.80E-01    4.1     0.00095009     -1123.2149076371 -1.71E-01
     3 OT DIIS     0.80E-01    4.1     0.00097973     -1123.3393421717 -1.24E-01
     4 OT DIIS     0.80E-01    4.1     0.00057154     -1123.4011282747 -6.18E-02
     5 OT DIIS     0.80E-01    4.1     0.00036260     -1123.4533263461 -5.22E-02
     6 OT DIIS     0.80E-01    4.1     0.00027666     -1123.4624504600 -9.12E-03
     7 OT DIIS     0.80E-01    4.1     0.00013258     -1123.4679947430 -5.54E-03
     8 OT DIIS     0.80E-01    4.1     0.00009116     -1123.4700088378 -2.01E-03
     9 OT DIIS     0.80E-01    4.1     0.00006544     -1123.4707788477 -7.70E-04
    10 OT DIIS     0.80E-01    4.1     0.00005014     -1123.4712718876 -4.93E-04
    11 OT DIIS     0.80E-01    4.1     0.00003424     -1123.4715390615 -2.67E-04

  *** SCF run converged in    11 steps ***


  Electronic density on regular grids:       -672.9999999886        0.0000000114
  Core density on regular grids:              675.9999999542       -0.0000000458
  Total charge density on r-space grids:        2.9999999656
  Total charge density g-space grids:           2.9999999656

  Overlap energy of the core charge distribution:               0.00003529794914
  Self energy of the core charge distribution:              -2597.23657311820534
  Core Hamiltonian energy:                                    800.55532994482951
  Hartree energy:                                             981.65944055031378
  Exchange-correlation energy:                               -308.44977173639882

  Total energy:                                             -1123.47153906151175

  Integrated absolute spin density  :                               5.4472369011
  Ideal and single determinant S**2 :                    8.750000       8.894531

 ENERGY| Total FORCE_EVAL ( QS ) energy (a.u.):            -1123.471705648337547


 --------  Informations at step =     5 ------------
  Optimization Method        =                 BFGS
  Total Energy               =     -1123.4717056483
  Real energy change         =        -0.0142893473
  Predicted change in energy =        -0.0110351466
  Scaling factor             =         0.0000000000
  Step size                  =         0.0843975019
  Trust radius               =         0.5669178399
  Decrease in energy         =                  YES
  Used time                  =               51.096

  Convergence check :
  Max. step size             =         0.0843975019
  Conv. limit for step size  =         0.1000000000
  Convergence in step size   =                  YES
  RMS step size              =         0.0231973713
  Conv. limit for RMS step   =         0.0100000000
  Convergence in RMS step    =                   NO
  Max. gradient              =         0.0148964627
  Conv. limit for gradients  =         0.1000000000
  Conv. in gradients         =                  YES
  RMS gradient               =         0.0018566643
  Conv. limit for RMS grad.  =         0.0100000000
  Conv. in RMS gradients     =                  YES
 ---------------------------------------------------

 --------------------------
 OPTIMIZATION STEP:      6
 --------------------------

 Spin 1

 Number of electrons:                                                        339
 Number of occupied orbitals:                                                339
 Number of molecular orbitals:                                               339

 Spin 2

 Number of electrons:                                                        334
 Number of occupied orbitals:                                                334
 Number of molecular orbitals:                                               334

 Number of orbital functions:                                               2226
 Number of independent orbital functions:                                   2226

 Extrapolation method: ASPC


 SCF WAVEFUNCTION OPTIMIZATION

  ----------------------------------- OT ---------------------------------------
  Minimizer      : DIIS                : direct inversion
                                         in the iterative subspace
                                         using   7 DIIS vectors
                                         safer DIIS on
  Preconditioner : FULL_SINGLE_INVERSE : inversion of 
                                         H + eS - 2*(Sc)(c^T*H*c+const)(Sc)^T
  Precond_solver : DEFAULT
  stepsize       :    0.08000000                  energy_gap     :    0.08000000
  eps_taylor     :   0.10000E-15                  max_taylor     :             4
  ----------------------------------- OT ---------------------------------------

  Step     Update method      Time    Convergence         Total energy    Change
  ------------------------------------------------------------------------------
     1 OT DIIS     0.80E-01    3.3     0.00070734     -1123.3576015901 -1.12E+03
     2 OT DIIS     0.80E-01    4.1     0.00055303     -1123.4051217657 -4.75E-02
     3 OT DIIS     0.80E-01    4.4     0.00063948     -1123.4262367845 -2.11E-02
     4 OT DIIS     0.80E-01    4.1     0.00030830     -1123.4565984293 -3.04E-02
     5 OT DIIS     0.80E-01    4.1     0.00030683     -1123.4691368115 -1.25E-02
     6 OT DIIS     0.80E-01    4.1     0.00012381     -1123.4757396599 -6.60E-03
     7 OT DIIS     0.80E-01    4.1     0.00008149     -1123.4774820872 -1.74E-03
     8 OT DIIS     0.80E-01    4.1     0.00004993     -1123.4783232903 -8.41E-04

  *** SCF run converged in     8 steps ***


  Electronic density on regular grids:       -672.9999999897        0.0000000103
  Core density on regular grids:              675.9999999542       -0.0000000458
  Total charge density on r-space grids:        2.9999999645
  Total charge density g-space grids:           2.9999999645

  Overlap energy of the core charge distribution:               0.00003424022236
  Self energy of the core charge distribution:              -2597.23657311820534
  Core Hamiltonian energy:                                    799.65000796775507
  Hartree energy:                                             982.29063992633780
  Exchange-correlation energy:                               -308.18243230639257

  Total energy:                                             -1123.47832329028256

  Integrated absolute spin density  :                               5.5167431543
  Ideal and single determinant S**2 :                    8.750000       8.857423

 ENERGY| Total FORCE_EVAL ( QS ) energy (a.u.):            -1123.478691389972937


 --------  Informations at step =     6 ------------
  Optimization Method        =                 BFGS
  Total Energy               =     -1123.4786913900
  Real energy change         =        -0.0069857416
  Predicted change in energy =        -0.0123277251
  Scaling factor             =         0.0000000000
  Step size                  =         0.1869293037
  Trust radius               =         0.5669178399
  Decrease in energy         =                  YES
  Used time                  =               38.911

  Convergence check :
  Max. step size             =         0.1869293037
  Conv. limit for step size  =         0.1000000000
  Convergence in step size   =                   NO
  RMS step size              =         0.0391710670
  Conv. limit for RMS step   =         0.0100000000
  Convergence in RMS step    =                   NO
  Max. gradient              =         0.0314780782
  Conv. limit for gradients  =         0.1000000000
  Conv. in gradients         =                  YES
  RMS gradient               =         0.0023141433
  Conv. limit for RMS grad.  =         0.0100000000
  Conv. in RMS gradients     =                  YES
 ---------------------------------------------------

 --------------------------
 OPTIMIZATION STEP:      7
 --------------------------

 Spin 1

 Number of electrons:                                                        339
 Number of occupied orbitals:                                                339
 Number of molecular orbitals:                                               339

 Spin 2

 Number of electrons:                                                        334
 Number of occupied orbitals:                                                334
 Number of molecular orbitals:                                               334

 Number of orbital functions:                                               2226
 Number of independent orbital functions:                                   2226

 Extrapolation method: ASPC


 SCF WAVEFUNCTION OPTIMIZATION

  ----------------------------------- OT ---------------------------------------
  Minimizer      : DIIS                : direct inversion
                                         in the iterative subspace
                                         using   7 DIIS vectors
                                         safer DIIS on
  Preconditioner : FULL_SINGLE_INVERSE : inversion of 
                                         H + eS - 2*(Sc)(c^T*H*c+const)(Sc)^T
  Precond_solver : DEFAULT
  stepsize       :    0.08000000                  energy_gap     :    0.08000000
  eps_taylor     :   0.10000E-15                  max_taylor     :             4
  ----------------------------------- OT ---------------------------------------

  Step     Update method      Time    Convergence         Total energy    Change
  ------------------------------------------------------------------------------
     1 OT DIIS     0.80E-01    3.3     0.00069265     -1123.3711321225 -1.12E+03
     2 OT DIIS     0.80E-01    4.1     0.00052603     -1123.4169115614 -4.58E-02
     3 OT DIIS     0.80E-01    4.1     0.00061661     -1123.4389160130 -2.20E-02
     4 OT DIIS     0.80E-01    4.1     0.00029730     -1123.4647685434 -2.59E-02
     5 OT DIIS     0.80E-01   10.0     0.00027220     -1123.4784843065 -1.37E-02
     6 OT DIIS     0.80E-01   10.1     0.00013769     -1123.4827792508 -4.29E-03
     7 OT DIIS     0.80E-01   10.0     0.00008923     -1123.4845862564 -1.81E-03
     8 OT DIIS     0.80E-01   10.0     0.00005950     -1123.4856135927 -1.03E-03
     9 OT DIIS     0.80E-01   10.1     0.00005033     -1123.4860308320 -4.17E-04
    10 OT DIIS     0.80E-01    4.7     0.00003828     -1123.4863245567 -2.94E-04

  *** SCF run converged in    10 steps ***


  Electronic density on regular grids:       -672.9999999890        0.0000000110
  Core density on regular grids:              675.9999999542       -0.0000000458
  Total charge density on r-space grids:        2.9999999652
  Total charge density g-space grids:           2.9999999652

  Overlap energy of the core charge distribution:               0.00003409793217
  Self energy of the core charge distribution:              -2597.23657311820534
  Core Hamiltonian energy:                                    799.48262022923359
  Hartree energy:                                             982.39799847696395
  Exchange-correlation energy:                               -308.13040424257650

  Total energy:                                             -1123.48632455665211

  Integrated absolute spin density  :                               5.4205560784
  Ideal and single determinant S**2 :                    8.750000       8.841095

 ENERGY| Total FORCE_EVAL ( QS ) energy (a.u.):            -1123.486556828325092


 --------  Informations at step =     7 ------------
  Optimization Method        =                 BFGS
  Total Energy               =     -1123.4865568283
  Real energy change         =        -0.0078654384
  Predicted change in energy =        -0.0068851831
  Scaling factor             =         0.0000000000
  Step size                  =         0.1209972174
  Trust radius               =         0.5669178399
  Decrease in energy         =                  YES
  Used time                  =               77.173

  Convergence check :
  Max. step size             =         0.1209972174
  Conv. limit for step size  =         0.1000000000
  Convergence in step size   =                   NO
  RMS step size              =         0.0178546035
  Conv. limit for RMS step   =         0.0100000000
  Convergence in RMS step    =                   NO
  Max. gradient              =         0.0067456905
  Conv. limit for gradients  =         0.1000000000
  Conv. in gradients         =                  YES
  RMS gradient               =         0.0015782289
  Conv. limit for RMS grad.  =         0.0100000000
  Conv. in RMS gradients     =                  YES
 ---------------------------------------------------

 --------------------------
 OPTIMIZATION STEP:      8
 --------------------------

 Spin 1

 Number of electrons:                                                        339
 Number of occupied orbitals:                                                339
 Number of molecular orbitals:                                               339

 Spin 2

 Number of electrons:                                                        334
 Number of occupied orbitals:                                                334
 Number of molecular orbitals:                                               334

 Number of orbital functions:                                               2226
 Number of independent orbital functions:                                   2226

 Extrapolation method: ASPC


 SCF WAVEFUNCTION OPTIMIZATION

  ----------------------------------- OT ---------------------------------------
  Minimizer      : DIIS                : direct inversion
                                         in the iterative subspace
                                         using   7 DIIS vectors
                                         safer DIIS on
  Preconditioner : FULL_SINGLE_INVERSE : inversion of 
                                         H + eS - 2*(Sc)(c^T*H*c+const)(Sc)^T
  Precond_solver : DEFAULT
  stepsize       :    0.08000000                  energy_gap     :    0.08000000
  eps_taylor     :   0.10000E-15                  max_taylor     :             4
  ----------------------------------- OT ---------------------------------------

  Step     Update method      Time    Convergence         Total energy    Change
  ------------------------------------------------------------------------------
     1 OT DIIS     0.80E-01    3.3     0.00058178     -1123.4129909074 -1.12E+03
     2 OT DIIS     0.80E-01    4.0     0.00043387     -1123.4452657047 -3.23E-02
     3 OT DIIS     0.80E-01    4.0     0.00048913     -1123.4617662301 -1.65E-02
     4 OT DIIS     0.80E-01    4.1     0.00024672     -1123.4786064289 -1.68E-02
     5 OT DIIS     0.80E-01    4.1     0.00019465     -1123.4892995006 -1.07E-02
     6 OT DIIS     0.80E-01    4.1     0.00009906     -1123.4916599175 -2.36E-03
     7 OT DIIS     0.80E-01    4.1     0.00008344     -1123.4926993203 -1.04E-03
     8 OT DIIS     0.80E-01    4.1     0.00005563     -1123.4932480005 -5.49E-04
     9 OT DIIS     0.80E-01    4.1     0.00003966     -1123.4935256452 -2.78E-04

  *** SCF run converged in     9 steps ***


  Electronic density on regular grids:       -672.9999999887        0.0000000113
  Core density on regular grids:              675.9999999543       -0.0000000457
  Total charge density on r-space grids:        2.9999999656
  Total charge density g-space grids:           2.9999999656

  Overlap energy of the core charge distribution:               0.00003424585599
  Self energy of the core charge distribution:              -2597.23657311820534
  Core Hamiltonian energy:                                    799.46548438222146
  Hartree energy:                                             982.40942032509270
  Exchange-correlation energy:                               -308.13189148015971

  Total energy:                                             -1123.49352564519495

  Integrated absolute spin density  :                               5.4576381623
  Ideal and single determinant S**2 :                    8.750000       8.866894

 ENERGY| Total FORCE_EVAL ( QS ) energy (a.u.):            -1123.493744954361318


 --------  Informations at step =     8 ------------
  Optimization Method        =                 BFGS
  Total Energy               =     -1123.4937449544
  Real energy change         =        -0.0071881260
  Predicted change in energy =        -0.0044607646
  Scaling factor             =         0.0000000000
  Step size                  =         0.0614258519
  Trust radius               =         0.5669178399
  Decrease in energy         =                  YES
  Used time                  =               42.382

  Convergence check :
  Max. step size             =         0.0614258519
  Conv. limit for step size  =         0.1000000000
  Convergence in step size   =                  YES
  RMS step size              =         0.0169581870
  Conv. limit for RMS step   =         0.0100000000
  Convergence in RMS step    =                   NO
  Max. gradient              =         0.0086993139
  Conv. limit for gradients  =         0.1000000000
  Conv. in gradients         =                  YES
  RMS gradient               =         0.0012403565
  Conv. limit for RMS grad.  =         0.0100000000
  Conv. in RMS gradients     =                  YES
 ---------------------------------------------------

 --------------------------
 OPTIMIZATION STEP:      9
 --------------------------

 Spin 1

 Number of electrons:                                                        339
 Number of occupied orbitals:                                                339
 Number of molecular orbitals:                                               339

 Spin 2

 Number of electrons:                                                        334
 Number of occupied orbitals:                                                334
 Number of molecular orbitals:                                               334

 Number of orbital functions:                                               2226
 Number of independent orbital functions:                                   2226

 Extrapolation method: ASPC


 SCF WAVEFUNCTION OPTIMIZATION

  ----------------------------------- OT ---------------------------------------
  Minimizer      : DIIS                : direct inversion
                                         in the iterative subspace
                                         using   7 DIIS vectors
                                         safer DIIS on
  Preconditioner : FULL_SINGLE_INVERSE : inversion of 
                                         H + eS - 2*(Sc)(c^T*H*c+const)(Sc)^T
  Precond_solver : DEFAULT
  stepsize       :    0.08000000                  energy_gap     :    0.08000000
  eps_taylor     :   0.10000E-15                  max_taylor     :             4
  ----------------------------------- OT ---------------------------------------

  Step     Update method      Time    Convergence         Total energy    Change
  ------------------------------------------------------------------------------
     1 OT DIIS     0.80E-01    3.5     0.00041994     -1123.4574731336 -1.12E+03
     2 OT DIIS     0.80E-01    4.1     0.00031657     -1123.4741819158 -1.67E-02
     3 OT DIIS     0.80E-01    4.1     0.00035192     -1123.4823833775 -8.20E-03
     4 OT DIIS     0.80E-01    4.1     0.00017629     -1123.4915665322 -9.18E-03
     5 OT DIIS     0.80E-01    4.1     0.00014935     -1123.4973983597 -5.83E-03
     6 OT DIIS     0.80E-01    4.1     0.00007059     -1123.4985576729 -1.16E-03
     7 OT DIIS     0.80E-01    4.1     0.00005795     -1123.4992597193 -7.02E-04
     8 OT DIIS     0.80E-01    4.1     0.00004451     -1123.4995077319 -2.48E-04

  *** SCF run converged in     8 steps ***


  Electronic density on regular grids:       -672.9999999892        0.0000000108
  Core density on regular grids:              675.9999999542       -0.0000000458
  Total charge density on r-space grids:        2.9999999650
  Total charge density g-space grids:           2.9999999650

  Overlap energy of the core charge distribution:               0.00003405719448
  Self energy of the core charge distribution:              -2597.23657311820534
  Core Hamiltonian energy:                                    799.32882863800273
  Hartree energy:                                             982.49265366067914
  Exchange-correlation energy:                               -308.08445096955268

  Total energy:                                             -1123.49950773188152

  Integrated absolute spin density  :                               5.5713684521
  Ideal and single determinant S**2 :                    8.750000       8.870769

 ENERGY| Total FORCE_EVAL ( QS ) energy (a.u.):            -1123.499741942875062


 --------  Informations at step =     9 ------------
  Optimization Method        =                 BFGS
  Total Energy               =     -1123.4997419429
  Real energy change         =        -0.0059969885
  Predicted change in energy =        -0.0089872985
  Scaling factor             =         0.0000000000
  Step size                  =         0.1646128228
  Trust radius               =         0.5669178399
  Decrease in energy         =                  YES
  Used time                  =               38.740

  Convergence check :
  Max. step size             =         0.1646128228
  Conv. limit for step size  =         0.1000000000
  Convergence in step size   =                   NO
  RMS step size              =         0.0460860038
  Conv. limit for RMS step   =         0.0100000000
  Convergence in RMS step    =                   NO
  Max. gradient              =         0.0155387939
  Conv. limit for gradients  =         0.1000000000
  Conv. in gradients         =                  YES
  RMS gradient               =         0.0025065563
  Conv. limit for RMS grad.  =         0.0100000000
  Conv. in RMS gradients     =                  YES
 ---------------------------------------------------

 --------------------------
 OPTIMIZATION STEP:     10
 --------------------------

 Spin 1

 Number of electrons:                                                        339
 Number of occupied orbitals:                                                339
 Number of molecular orbitals:                                               339

 Spin 2

 Number of electrons:                                                        334
 Number of occupied orbitals:                                                334
 Number of molecular orbitals:                                               334

 Number of orbital functions:                                               2226
 Number of independent orbital functions:                                   2226

 Extrapolation method: ASPC


 SCF WAVEFUNCTION OPTIMIZATION

  ----------------------------------- OT ---------------------------------------
  Minimizer      : DIIS                : direct inversion
                                         in the iterative subspace
                                         using   7 DIIS vectors
                                         safer DIIS on
  Preconditioner : FULL_SINGLE_INVERSE : inversion of 
                                         H + eS - 2*(Sc)(c^T*H*c+const)(Sc)^T
  Precond_solver : DEFAULT
  stepsize       :    0.08000000                  energy_gap     :    0.08000000
  eps_taylor     :   0.10000E-15                  max_taylor     :             4
  ----------------------------------- OT ---------------------------------------

  Step     Update method      Time    Convergence         Total energy    Change
  ------------------------------------------------------------------------------
     1 OT DIIS     0.80E-01    3.3     0.00064559     -1123.4007271443 -1.12E+03
     2 OT DIIS     0.80E-01    4.1     0.00046803     -1123.4420779979 -4.14E-02
     3 OT DIIS     0.80E-01    4.1     0.00044159     -1123.4735805370 -3.15E-02
     4 OT DIIS     0.80E-01    4.1     0.00030477     -1123.4885426463 -1.50E-02
     5 OT DIIS     0.80E-01    4.1     0.00018949     -1123.4995515746 -1.10E-02
     6 OT DIIS     0.80E-01    4.1     0.00011672     -1123.5025417768 -2.99E-03
     7 OT DIIS     0.80E-01    4.2     0.00010070     -1123.5038785088 -1.34E-03
     8 OT DIIS     0.80E-01    4.1     0.00005353     -1123.5046405362 -7.62E-04
     9 OT DIIS     0.80E-01    4.1     0.00004113     -1123.5050026577 -3.62E-04

  *** SCF run converged in     9 steps ***


  Electronic density on regular grids:       -672.9999999894        0.0000000106
  Core density on regular grids:              675.9999999542       -0.0000000458
  Total charge density on r-space grids:        2.9999999649
  Total charge density g-space grids:           2.9999999649

  Overlap energy of the core charge distribution:               0.00003375535172
  Self energy of the core charge distribution:              -2597.23657311820534
  Core Hamiltonian energy:                                    799.17248103899112
  Hartree energy:                                             982.58732705167517
  Exchange-correlation energy:                               -308.02827138547661

  Total energy:                                             -1123.50500265766414

  Integrated absolute spin density  :                               5.4045198012
  Ideal and single determinant S**2 :                    8.750000       8.825616

 ENERGY| Total FORCE_EVAL ( QS ) energy (a.u.):            -1123.505191040473619


 --------  Informations at step =    10 ------------
  Optimization Method        =                 BFGS
  Total Energy               =     -1123.5051910405
  Real energy change         =        -0.0054490976
  Predicted change in energy =        -0.0048392889
  Scaling factor             =         0.0000000000
  Step size                  =         0.0459564524
  Trust radius               =         0.5669178399
  Decrease in energy         =                  YES
  Used time                  =               42.547

  Convergence check :
  Max. step size             =         0.0459564524
  Conv. limit for step size  =         0.1000000000
  Convergence in step size   =                  YES
  RMS step size              =         0.0142312627
  Conv. limit for RMS step   =         0.0100000000
  Convergence in RMS step    =                   NO
  Max. gradient              =         0.0193662699
  Conv. limit for gradients  =         0.1000000000
  Conv. in gradients         =                  YES
  RMS gradient               =         0.0018760713
  Conv. limit for RMS grad.  =         0.0100000000
  Conv. in RMS gradients     =                  YES
 ---------------------------------------------------

 --------------------------
 OPTIMIZATION STEP:     11
 --------------------------

 Spin 1

 Number of electrons:                                                        339
 Number of occupied orbitals:                                                339
 Number of molecular orbitals:                                               339

 Spin 2

 Number of electrons:                                                        334
 Number of occupied orbitals:                                                334
 Number of molecular orbitals:                                               334

 Number of orbital functions:                                               2226
 Number of independent orbital functions:                                   2226

 Extrapolation method: ASPC


 SCF WAVEFUNCTION OPTIMIZATION

  ----------------------------------- OT ---------------------------------------
  Minimizer      : DIIS                : direct inversion
                                         in the iterative subspace
                                         using   7 DIIS vectors
                                         safer DIIS on
  Preconditioner : FULL_SINGLE_INVERSE : inversion of 
                                         H + eS - 2*(Sc)(c^T*H*c+const)(Sc)^T
  Precond_solver : DEFAULT
  stepsize       :    0.08000000                  energy_gap     :    0.08000000
  eps_taylor     :   0.10000E-15                  max_taylor     :             4
  ----------------------------------- OT ---------------------------------------

  Step     Update method      Time    Convergence         Total energy    Change
  ------------------------------------------------------------------------------
     1 OT DIIS     0.80E-01    3.3     0.00059825     -1123.4220702258 -1.12E+03
     2 OT DIIS     0.80E-01    4.1     0.00043698     -1123.4573029375 -3.52E-02
     3 OT DIIS     0.80E-01    4.1     0.00048094     -1123.4804842814 -2.32E-02
     4 OT DIIS     0.80E-01    4.1     0.00025970     -1123.4954571617 -1.50E-02
     5 OT DIIS     0.80E-01    4.1     0.00021550     -1123.5041443652 -8.69E-03
     6 OT DIIS     0.80E-01    4.1     0.00010621     -1123.5068667682 -2.72E-03
     7 OT DIIS     0.80E-01    4.1     0.00006976     -1123.5082211884 -1.35E-03
     8 OT DIIS     0.80E-01    4.1     0.00004603     -1123.5087830434 -5.62E-04

  *** SCF run converged in     8 steps ***


  Electronic density on regular grids:       -672.9999999890        0.0000000110
  Core density on regular grids:              675.9999999542       -0.0000000458
  Total charge density on r-space grids:        2.9999999652
  Total charge density g-space grids:           2.9999999652

  Overlap energy of the core charge distribution:               0.00003333719877
  Self energy of the core charge distribution:              -2597.23657311820534
  Core Hamiltonian energy:                                    798.88843849940099
  Hartree energy:                                             982.77813906574738
  Exchange-correlation energy:                               -307.93882082753424

  Total energy:                                             -1123.50878304339267

  Integrated absolute spin density  :                               5.2747570439
  Ideal and single determinant S**2 :                    8.750000       8.797990

 ENERGY| Total FORCE_EVAL ( QS ) energy (a.u.):            -1123.509039130316751


 --------  Informations at step =    11 ------------
  Optimization Method        =                 BFGS
  Total Energy               =     -1123.5090391303
  Real energy change         =        -0.0038480898
  Predicted change in energy =        -0.0050472772
  Scaling factor             =         0.0000000000
  Step size                  =         0.0802698832
  Trust radius               =         0.5669178399
  Decrease in energy         =                  YES
  Used time                  =               38.316

  Convergence check :
  Max. step size             =         0.0802698832
  Conv. limit for step size  =         0.1000000000
  Convergence in step size   =                  YES
  RMS step size              =         0.0198887031
  Conv. limit for RMS step   =         0.0100000000
  Convergence in RMS step    =                   NO
  Max. gradient              =         0.0080168355
  Conv. limit for gradients  =         0.1000000000
  Conv. in gradients         =                  YES
  RMS gradient               =         0.0013715707
  Conv. limit for RMS grad.  =         0.0100000000
  Conv. in RMS gradients     =                  YES
 ---------------------------------------------------

 --------------------------
 OPTIMIZATION STEP:     12
 --------------------------

 Spin 1

 Number of electrons:                                                        339
 Number of occupied orbitals:                                                339
 Number of molecular orbitals:                                               339

 Spin 2

 Number of electrons:                                                        334
 Number of occupied orbitals:                                                334
 Number of molecular orbitals:                                               334

 Number of orbital functions:                                               2226
 Number of independent orbital functions:                                   2226

 Extrapolation method: ASPC


 SCF WAVEFUNCTION OPTIMIZATION

  ----------------------------------- OT ---------------------------------------
  Minimizer      : DIIS                : direct inversion
                                         in the iterative subspace
                                         using   7 DIIS vectors
                                         safer DIIS on
  Preconditioner : FULL_SINGLE_INVERSE : inversion of 
                                         H + eS - 2*(Sc)(c^T*H*c+const)(Sc)^T
  Precond_solver : DEFAULT
  stepsize       :    0.08000000                  energy_gap     :    0.08000000
  eps_taylor     :   0.10000E-15                  max_taylor     :             4
  ----------------------------------- OT ---------------------------------------

  Step     Update method      Time    Convergence         Total energy    Change
  ------------------------------------------------------------------------------
     1 OT DIIS     0.80E-01    3.3     0.00043859     -1123.4684049391 -1.12E+03
     2 OT DIIS     0.80E-01    4.0     0.00035596     -1123.4860483335 -1.76E-02
     3 OT DIIS     0.80E-01    4.1     0.00038281     -1123.4928121710 -6.76E-03
     4 OT DIIS     0.80E-01    4.1     0.00016664     -1123.5048016946 -1.20E-02
     5 OT DIIS     0.80E-01    4.1     0.00014959     -1123.5097376885 -4.94E-03
     6 OT DIIS     0.80E-01    4.1     0.00008307     -1123.5111562090 -1.42E-03
     7 OT DIIS     0.80E-01    4.1     0.00006446     -1123.5118077181 -6.52E-04
     8 OT DIIS     0.80E-01    4.1     0.00004663     -1123.5121715967 -3.64E-04

  *** SCF run converged in     8 steps ***


  Electronic density on regular grids:       -672.9999999892        0.0000000108
  Core density on regular grids:              675.9999999542       -0.0000000458
  Total charge density on r-space grids:        2.9999999651
  Total charge density g-space grids:           2.9999999651

  Overlap energy of the core charge distribution:               0.00003323680533
  Self energy of the core charge distribution:              -2597.23657311820534
  Core Hamiltonian energy:                                    798.79656440368558
  Hartree energy:                                             982.84173494023003
  Exchange-correlation energy:                               -307.91393105924067

  Total energy:                                             -1123.51217159672501

  Integrated absolute spin density  :                               5.3998253853
  Ideal and single determinant S**2 :                    8.750000       8.822188

 ENERGY| Total FORCE_EVAL ( QS ) energy (a.u.):            -1123.512408060529197


 --------  Informations at step =    12 ------------
  Optimization Method        =                 BFGS
  Total Energy               =     -1123.5124080605
  Real energy change         =        -0.0033689302
  Predicted change in energy =        -0.0028709719
  Scaling factor             =         0.0000000000
  Step size                  =         0.0569561179
  Trust radius               =         0.5669178399
  Decrease in energy         =                  YES
  Used time                  =               38.242

  Convergence check :
  Max. step size             =         0.0569561179
  Conv. limit for step size  =         0.1000000000
  Convergence in step size   =                  YES
  RMS step size              =         0.0155693792
  Conv. limit for RMS step   =         0.0100000000
  Convergence in RMS step    =                   NO
  Max. gradient              =         0.0081014853
  Conv. limit for gradients  =         0.1000000000
  Conv. in gradients         =                  YES
  RMS gradient               =         0.0011783759
  Conv. limit for RMS grad.  =         0.0100000000
  Conv. in RMS gradients     =                  YES
 ---------------------------------------------------

 --------------------------
 OPTIMIZATION STEP:     13
 --------------------------

 Spin 1

 Number of electrons:                                                        339
 Number of occupied orbitals:                                                339
 Number of molecular orbitals:                                               339

 Spin 2

 Number of electrons:                                                        334
 Number of occupied orbitals:                                                334
 Number of molecular orbitals:                                               334

 Number of orbital functions:                                               2226
 Number of independent orbital functions:                                   2226

 Extrapolation method: ASPC


 SCF WAVEFUNCTION OPTIMIZATION

  ----------------------------------- OT ---------------------------------------
  Minimizer      : DIIS                : direct inversion
                                         in the iterative subspace
                                         using   7 DIIS vectors
                                         safer DIIS on
  Preconditioner : FULL_SINGLE_INVERSE : inversion of 
                                         H + eS - 2*(Sc)(c^T*H*c+const)(Sc)^T
  Precond_solver : DEFAULT
  stepsize       :    0.08000000                  energy_gap     :    0.08000000
  eps_taylor     :   0.10000E-15                  max_taylor     :             4
  ----------------------------------- OT ---------------------------------------

  Step     Update method      Time    Convergence         Total energy    Change
  ------------------------------------------------------------------------------
     1 OT DIIS     0.80E-01    3.3     0.00036192     -1123.4857825459 -1.12E+03
     2 OT DIIS     0.80E-01    4.0     0.00032939     -1123.4973349907 -1.16E-02
     3 OT DIIS     0.80E-01    4.1     0.00029421     -1123.5016554848 -4.32E-03
     4 OT DIIS     0.80E-01    4.1     0.00014543     -1123.5114111634 -9.76E-03
     5 OT DIIS     0.80E-01    4.1     0.00009881     -1123.5143229408 -2.91E-03
     6 OT DIIS     0.80E-01    4.1     0.00007751     -1123.5154319018 -1.11E-03
     7 OT DIIS     0.80E-01    4.1     0.00005812     -1123.5158204425 -3.89E-04
     8 OT DIIS     0.80E-01    4.1     0.00003851     -1123.5162444439 -4.24E-04

  *** SCF run converged in     8 steps ***


  Electronic density on regular grids:       -672.9999999891        0.0000000109
  Core density on regular grids:              675.9999999542       -0.0000000458
  Total charge density on r-space grids:        2.9999999651
  Total charge density g-space grids:           2.9999999651

  Overlap energy of the core charge distribution:               0.00003294015297
  Self energy of the core charge distribution:              -2597.23657311820534
  Core Hamiltonian energy:                                    798.63732424935051
  Hartree energy:                                             982.94805805340070
  Exchange-correlation energy:                               -307.86508656858911

  Total energy:                                             -1123.51624444389040

  Integrated absolute spin density  :                               5.4129847734
  Ideal and single determinant S**2 :                    8.750000       8.831990

 ENERGY| Total FORCE_EVAL ( QS ) energy (a.u.):            -1123.516475143243269


 --------  Informations at step =    13 ------------
  Optimization Method        =                 BFGS
  Total Energy               =     -1123.5164751432
  Real energy change         =        -0.0040670827
  Predicted change in energy =        -0.0047135418
  Scaling factor             =         0.0000000000
  Step size                  =         0.1363303687
  Trust radius               =         0.5669178399
  Decrease in energy         =                  YES
  Used time                  =               38.324

  Convergence check :
  Max. step size             =         0.1363303687
  Conv. limit for step size  =         0.1000000000
  Convergence in step size   =                   NO
  RMS step size              =         0.0395669770
  Conv. limit for RMS step   =         0.0100000000
  Convergence in RMS step    =                   NO
  Max. gradient              =         0.0130101902
  Conv. limit for gradients  =         0.1000000000
  Conv. in gradients         =                  YES
  RMS gradient               =         0.0016770971
  Conv. limit for RMS grad.  =         0.0100000000
  Conv. in RMS gradients     =                  YES
 ---------------------------------------------------

 --------------------------
 OPTIMIZATION STEP:     14
 --------------------------

 Spin 1

 Number of electrons:                                                        339
 Number of occupied orbitals:                                                339
 Number of molecular orbitals:                                               339

 Spin 2

[...]
 flops   42 x   14 x    5               398099520       0.0%    100.0%      0.0%
 flops   19 x   19 x  206               431917728       0.0%    100.0%      0.0%
 flops    5 x    5 x   19               462358350       0.0%    100.0%      0.0%
 flops   19 x   19 x   32               497660160       0.0%    100.0%      0.0%
 flops   19 x   32 x   19               497660160       0.0%    100.0%      0.0%
 flops   32 x   19 x   19               497660160       0.0%    100.0%      0.0%
 flops  206 x   19 x   19               523834104       0.0%    100.0%      0.0%
 flops    5 x   19 x   42               525339360       0.0%    100.0%      0.0%
 flops   42 x   19 x    5               525339360       0.0%    100.0%      0.0%
 flops   14 x   14 x  201               610165248       0.0%    100.0%      0.0%
 flops   42 x   42 x   32               666086400       0.0%    100.0%      0.0%
 flops  201 x   14 x   14               740014464       0.0%    100.0%      0.0%
 flops   19 x   19 x  201              1123824768       0.0%    100.0%      0.0%
 flops    5 x   14 x    5              1229792200       0.0%    100.0%      0.0%
 flops   13 x   14 x   42              1273918464       0.0%    100.0%      0.0%
 flops   42 x   14 x   13              1273918464       0.0%    100.0%      0.0%
 flops  201 x   19 x   19              1362985824       0.0%    100.0%      0.0%
 flops   42 x   32 x   42              1449584640       0.0%    100.0%      0.0%
 flops   13 x    5 x   14              1518819120       0.0%    100.0%      0.0%
 flops    5 x   13 x   14              1519914760       0.0%    100.0%      0.0%
 flops    5 x   19 x    5              1623147200       0.0%    100.0%      0.0%
 flops   13 x   19 x   42              1681085952       0.0%    100.0%      0.0%
 flops   42 x   19 x   13              1681085952       0.0%    100.0%      0.0%
 flops   13 x    5 x   19              2061254520       0.0%    100.0%      0.0%
 flops    5 x   13 x   19              2062741460       0.0%    100.0%      0.0%
 flops  206 x   14 x  206              2780406720     100.0%      0.0%      0.0%
 flops  206 x   19 x  206              3773409120     100.0%      0.0%      0.0%
 flops   42 x    5 x   32              4123392000       0.0%    100.0%      0.0%
 flops    5 x   42 x   32              4123392000       0.0%    100.0%      0.0%
 flops    5 x   32 x   32              4217241600       0.0%    100.0%      0.0%
 flops   14 x   32 x  206              5310251520       0.0%    100.0%      0.0%
 flops   32 x   14 x  206              5310251520       0.0%    100.0%      0.0%
 flops    5 x   14 x   13              6111201460       0.0%    100.0%      0.0%
 flops   13 x   14 x    5              6111201460       0.0%    100.0%      0.0%
 flops   32 x   32 x   14              6190284800       0.0%    100.0%      0.0%
 flops   14 x   32 x   32              6190284800       0.0%    100.0%      0.0%
 flops   32 x   14 x   32              6190284800       0.0%    100.0%      0.0%
 flops  206 x   32 x   14              6500766720       0.0%    100.0%      0.0%
 flops  206 x   14 x   32              6500766720       0.0%    100.0%      0.0%
 flops   19 x   32 x  206              7206769920       0.0%    100.0%      0.0%
 flops   32 x   19 x  206              7206769920       0.0%    100.0%      0.0%
 flops  201 x   14 x  206              7234456320     100.0%      0.0%      0.0%
 flops  206 x   14 x  201              7234456320     100.0%      0.0%      0.0%
 flops    5 x   19 x   13              8066395090       0.0%    100.0%      0.0%
 flops   13 x   19 x    5              8066395090       0.0%    100.0%      0.0%
 flops   13 x   13 x   14              8081726016       0.0%    100.0%      0.0%
 flops   32 x   32 x   19              8381644800       0.0%    100.0%      0.0%
 flops   19 x   32 x   32              8381644800       0.0%    100.0%      0.0%
 flops   32 x   19 x   32              8381644800       0.0%    100.0%      0.0%
 flops  206 x   32 x   19              8822469120       0.0%    100.0%      0.0%
 flops  206 x   19 x   32              8822469120       0.0%    100.0%      0.0%
 flops  201 x   19 x  206              9818190720     100.0%      0.0%      0.0%
 flops  206 x   19 x  201              9818190720     100.0%      0.0%      0.0%
 flops   13 x   13 x   19             10968056736       0.0%    100.0%      0.0%
 flops   42 x   13 x   32             13194854400       0.0%    100.0%      0.0%
 flops   13 x   42 x   32             13194854400       0.0%    100.0%      0.0%
 flops   13 x   32 x   32             13495173120       0.0%    100.0%      0.0%
 flops   14 x   32 x  201             13816965120       0.0%    100.0%      0.0%
 flops   32 x   14 x  201             13816965120       0.0%    100.0%      0.0%
 flops    5 x    5 x   32             15574176000       0.0%    100.0%      0.0%
 flops  201 x   14 x   32             16914616320       0.0%    100.0%      0.0%
 flops  201 x   32 x   14             16914616320       0.0%    100.0%      0.0%
 flops   42 x   32 x    5             17947238400       0.0%    100.0%      0.0%
 flops    5 x   32 x   42             17947238400       0.0%    100.0%      0.0%
 flops   19 x   32 x  201             18751595520       0.0%    100.0%      0.0%
 flops   32 x   19 x  201             18751595520       0.0%    100.0%      0.0%
 flops  201 x   14 x  201             18823633920     100.0%      0.0%      0.0%
 flops  201 x   19 x   32             22955550720       0.0%    100.0%      0.0%
 flops  201 x   32 x   19             22955550720       0.0%    100.0%      0.0%
 flops  201 x   19 x  201             25546360320     100.0%      0.0%      0.0%
 flops   13 x   14 x   13             34255970112       0.0%    100.0%      0.0%
 flops   13 x   19 x   13             45215735032       0.0%    100.0%      0.0%
 flops    5 x   32 x    5             55446752000       0.0%    100.0%      0.0%
 flops   42 x   32 x   13             57431162880       0.0%    100.0%      0.0%
 flops   13 x   32 x   42             57431162880       0.0%    100.0%      0.0%
 flops   13 x    5 x   32             69431731200       0.0%    100.0%      0.0%
 flops    5 x   13 x   32             69481817600       0.0%    100.0%      0.0%
 flops  206 x   32 x  206            127104307200     100.0%      0.0%      0.0%
 flops   32 x   32 x  206            242982174720       0.0%    100.0%      0.0%
 flops   13 x   32 x    5            275539680000       0.0%    100.0%      0.0%
 flops    5 x   32 x   13            275539680000       0.0%    100.0%      0.0%
 flops   32 x   32 x   32            282656768000       0.0%    100.0%      0.0%
 flops  206 x   32 x   32            297177907200       0.0%    100.0%      0.0%
 flops  206 x   32 x  201            330718003200     100.0%      0.0%      0.0%
 flops  201 x   32 x  206            330718003200     100.0%      0.0%      0.0%
 flops   13 x   13 x   32            369450332160       0.0%    100.0%      0.0%
 flops   32 x   32 x  201            632225464320       0.0%    100.0%      0.0%
 flops  201 x   32 x   32            773239603200       0.0%    100.0%      0.0%
 flops  201 x   32 x  201            860508979200     100.0%      0.0%      0.0%
 flops   13 x   32 x   13           1544521771520       0.0%    100.0%      0.0%
 flops total                         7.243969E+12      23.9%     76.1%      0.0%
 flops max/rank                     67.866734E+09      22.5%     77.5%      0.0%
 matmuls inhomo. stacks                         0       0.0%      0.0%      0.0%
 matmuls total                          447230157       0.2%     99.8%      0.0%
 number of processed stacks              23127049       3.0%     97.0%      0.0%
 average stack size                                     1.0      19.9       0.0
 marketing flops                    10.525577E+12
 -------------------------------------------------------------------------------
 # multiplications                          11099
 max memory usage/rank             379.699200E+06
 # max total images/rank                        1
 # MPI messages exchanged                26859580
 # MPI messages filtered                        0
 MPI messages size (elements):
  total size                       143.672476E+09
  min size                           0.000000E+00
  max size                          42.436000E+03
  average size                       5.349021E+03
 MPI breakdown and total messages size (bytes):
             size <=      128              126720                        0
       128 < size <=     8192            13326060              99769418080
      8192 < size <=    32768             1020360              27247842720
     32768 < size <=   131072            10203600             528598425600
    131072 < size <=  4194304             2182840             494037945440
   4194304 < size <= 16777216                   0                        0
  16777216 < size                               0                        0
 -------------------------------------------------------------------------------

 MEMORY| Estimated peak process memory [MiB]                                 363

 -------------------------------------------------------------------------------
 -                                                                             -
 -                         MESSAGE PASSING PERFORMANCE                         -
 -                                                                             -
 -------------------------------------------------------------------------------

 ROUTINE             CALLS  TOT TIME [s]  AVE VOLUME [Bytes]  PERFORMANCE [MB/s]
 MP_Group                5         0.000
 MP_Bcast            26663         0.823              79129.             2564.93
 MP_Allreduce        98377        31.735                310.                0.96
 MP_Sync               285         0.006
 MP_Alltoall         52373       132.531            2732680.             1079.89
 MP_ISendRecv       249120         1.881              72192.             9562.57
 MP_Wait           1679852       181.261
 MP_comm_split         281         0.479
 MP_ISend           756239        10.006              56372.             4260.61
 MP_IRecv           756239         0.484              56146.            87760.35
 MP_Recv               776         0.110             390498.             2750.63
 MP_Memory          450656         0.099
 -------------------------------------------------------------------------------


 -------------------------------------------------------------------------------
 -                                                                             -
 -                           R E F E R E N C E S                               -
 -                                                                             -
 -------------------------------------------------------------------------------
 
 CP2K version 4.1, the CP2K developers group (2016).
 CP2K is freely available from https://www.cp2k.org/ .

 Schuett, Ole; Messmer, Peter; Hutter, Juerg; VandeVondele, Joost. 
 Electronic Structure Calculations on Graphics Processing Units, John Wiley & Sons, Ltd, 173-190 (2016). 
 GPU-Accelerated Sparse Matrix-Matrix Multiplication for Linear Scaling Density Functional Theory.
 http://dx.doi.org/10.1002/9781118670712.ch8


 Borstnik, U; VandeVondele, J; Weber, V; Hutter, J. 
 PARALLEL COMPUTING, 40 (5-6), 47-58 (2014). 
 Sparse matrix multiplication: The distributed block-compressed sparse
 row library.
 http://dx.doi.org/10.1016/j.parco.2014.03.012


 Hutter, J; Iannuzzi, M; Schiffmann, F; VandeVondele, J. 
 WILEY INTERDISCIPLINARY REVIEWS-COMPUTATIONAL MOLECULAR SCIENCE, 4 (1), 15-25 (2014). 
 CP2K: atomistic simulations of condensed matter systems.
 http://dx.doi.org/10.1002/wcms.1159


 VandeVondele, J; Hutter, J. 
 JOURNAL OF CHEMICAL PHYSICS, 127 (11), 114105 (2007). 
 Gaussian basis sets for accurate calculations on molecular systems in
 gas and condensed phases.
 http://dx.doi.org/10.1063/1.2770708


 Krack, M. 
 THEORETICAL CHEMISTRY ACCOUNTS, 114 (1-3), 145-152 (2005). 
 Pseudopotentials for H to Kr optimized for gradient-corrected
 exchange-correlation functionals.
 http://dx.doi.org/10.1007/s00214-005-0655-y


 VandeVondele, J; Krack, M; Mohamed, F; Parrinello, M; Chassaing, T;
 Hutter, J. COMPUTER PHYSICS COMMUNICATIONS, 167 (2), 103-128 (2005). 
 QUICKSTEP: Fast and accurate density functional calculations using a
 mixed Gaussian and plane waves approach.
 http://dx.doi.org/10.1016/j.cpc.2004.12.014


 Frigo, M; Johnson, SG. 
 PROCEEDINGS OF THE IEEE, 93 (2), 216-231 (2005). 
 The design and implementation of FFTW3.
 http://dx.doi.org/10.1109/JPROC.2004.840301


 Kolafa, J. 
 JOURNAL OF COMPUTATIONAL CHEMISTRY, 25 (3), 335-342 (2004). 
 Time-reversible always stable predictor-corrector method for molecular dynamics of polarizable molecules.
 http://dx.doi.org/10.1002/jcc.10385


 VandeVondele, J; Hutter, J. 
 JOURNAL OF CHEMICAL PHYSICS, 118 (10), 4365-4369 (2003). 
 An efficient orbital transformation method for electronic structure
 calculations.
 http://dx.doi.org/10.1063/1.1543154


 Hartwigsen, C; Goedecker, S; Hutter, J. 
 PHYSICAL REVIEW B, 58 (7), 3641-3662 (1998). 
 Relativistic separable dual-space Gaussian pseudopotentials from H to Rn.
 http://dx.doi.org/10.1103/PhysRevB.58.3641


 Lippert, G; Hutter, J; Parrinello, M. 
 MOLECULAR PHYSICS, 92 (3), 477-487 (1997). 
 A hybrid Gaussian and plane wave density functional scheme.
 http://dx.doi.org/10.1080/002689797170220


 Perdew, JP; Burke, K; Ernzerhof, M. 
 PHYSICAL REVIEW LETTERS, 77 (18), 3865-3868 (1996). 
 Generalized gradient approximation made simple.
 http://dx.doi.org/10.1103/PhysRevLett.77.3865


 Goedecker, S; Teter, M; Hutter, J. 
 PHYSICAL REVIEW B, 54 (3), 1703-1710 (1996). 
 Separable dual-space Gaussian pseudopotentials.
 http://dx.doi.org/10.1103/PhysRevB.54.1703


 -------------------------------------------------------------------------------
 -                                                                             -
 -                                T I M I N G                                  -
 -                                                                             -
 -------------------------------------------------------------------------------
 SUBROUTINE                       CALLS  ASD         SELF TIME        TOTAL TIME
                                MAXIMUM       AVERAGE  MAXIMUM  AVERAGE  MAXIMUM
 CP2K                                 1  1.0    0.035    0.097 1168.374 1168.376
 cp_geo_opt                           1  2.0    0.001    0.001 1166.812 1166.814
 geoopt_bfgs                          1  3.0    0.012    0.024 1166.812 1166.814
 cp_eval_at                          18  4.0    0.004    0.009 1164.646 1164.652
 qs_forces                           17  5.0    0.003    0.003 1125.753 1125.754
 qs_energies                         18  5.9    0.001    0.002 1102.232 1102.237
 scf_env_do_scf                      18  6.9    0.001    0.001 1071.124 1071.149
 scf_env_do_scf_inner_loop          242  8.0    0.011    0.023 1013.834 1014.040
 rebuild_ks_matrix                  259  9.8    0.002    0.003  751.767  752.029
 qs_ks_build_kohn_sham_matrix       259 10.8    0.057    0.079  751.765  752.026
 qs_ks_update_qs_env                260  9.0    0.005    0.007  699.827  700.072
 pw_transfer                       9093 13.5    0.930    1.173  548.913  608.505
 fft_wrap_pw1pw2                   8575 14.6    0.130    0.165  544.005  606.812
 fft_wrap_pw1pw2_250               5461 15.7   51.367   58.142  522.947  571.332
 fft3d_ps                          8575 16.6  206.562  221.573  409.184  541.466
 qs_vxc_create                      259 11.8    0.009    0.011  467.168  471.118
 xc_vxc_pw_create                   259 12.8    6.956   10.375  467.159  471.112
 mp_alltoall_z22v                  8575 18.6  145.986  364.857  145.986  364.857
 rs_pw_transfer                    4187 13.4    0.088    0.141  291.714  307.382
 qs_rho_update_rho                  260  9.0    0.003    0.005  281.891  282.001
 calculate_rho_elec                 520 10.0   11.477   19.297  281.888  281.997
 density_rs2pw                      520 11.0    0.029    0.040  246.376  256.631
 xc_rho_set_and_dset_create         259 13.8    6.017    6.762  219.312  235.076
 sum_up_and_integrate               259 11.8    1.880    2.068  232.146  232.837
 integrate_v_rspace                 518 12.8    8.372   17.853  230.263  232.328
 potential_pw2rs                    518 13.8    0.066    0.078  211.862  213.728
 yz_to_x                           3130 17.3   21.976   27.552   99.350  200.337
 mp_waitany                      268027 15.3  105.652  197.775  105.652  197.775
 x_to_yz                           3369 18.0   29.527   33.293   97.004  189.876
 rs_pw_transfer_RS2PW_250           538 13.0   44.051   54.882   95.713  111.815
 rs_pw_transfer_PW2RS_250           535 15.6   46.704   53.813   98.790  104.641
 qs_scf_new_mos                     242  9.0    0.001    0.003  102.716  102.952
 qs_scf_loop_do_ot                  242 10.0    0.001    0.002  102.714  102.950
 mp_waitall_1                   1411825 17.0   77.384  100.971   77.384  100.971
 ot_scf_mini                        242 11.0    0.012    0.017   98.940   99.161
 dbcsr_multiply_generic           11099 14.0    0.179    0.192   86.187   87.540
 ot_mini                            242 12.0    0.002    0.003   58.069   58.389
 init_scf_loop                       18  7.9    0.002    0.002   57.064   57.089
 qs_ks_update_qs_env_forces          17  6.0    0.000    0.000   52.609   52.621
 pw_scatter_p                      4405 17.2   44.727   48.751   44.727   48.751
 multiply_cannon                  11099 15.0    0.801    0.857   41.945   48.322
 xc_functional_eval                 259 14.8    0.004    0.007   31.943   47.064
 pbe_lsd_eval                       259 15.8   31.938   47.060   31.938   47.060
 qs_ot_get_derivative               484 13.0    0.004    0.005   44.265   44.566
 pw_derive                         3108 14.3   38.646   43.759   38.646   43.759
 pw_gather_p                       4170 16.0   37.236   41.111   37.236   41.111
 rs_pw_transfer_PW2RS_90            518 15.8    6.225    7.245   23.425   37.150
 mp_sum_d                         20967 14.6   10.507   33.957   10.507   33.957
 rs_grid_zero                      3151 12.9   31.390   33.674   31.390   33.674
 qs_ot_get_p                        520 11.8    0.003    0.005   29.990   30.586
 mp_alltoall_d11v                  9478 15.2   11.990   26.801   11.990   26.801
 fft_wrap_pw1pw2_90                1038 15.4    1.049    1.442   13.474   26.732
 rs_distribute_matrix              1072 12.4    0.200    0.565   11.892   26.721
 make_m2s                         22198 15.0    0.183    0.197   21.050   26.327
 rs_pw_transfer_PW2RS_30            518 15.8    4.070    6.709   24.339   25.768
 make_images                      22198 16.0    2.364    2.491   20.198   25.459
 pw_axpy                           5724 12.9   21.898   25.065   21.898   25.065
 rs_pw_transfer_RS2PW_30            520 13.0    4.287    7.758   22.378   23.744
 pw_copy                           4939 14.5   21.581   23.727   21.581   23.727
 -------------------------------------------------------------------------------

 The number of warnings for this run is : 1
 
 -------------------------------------------------------------------------------
  **** **** ******  **  PROGRAM ENDED AT                 2023-04-10 15:33:38.620
 ***** ** ***  *** **   PROGRAM RAN ON            node147.pri.kelvin2.alces.netw
 **    ****   ******    PROGRAM RAN BY                                  40265864
 ***** **    ** ** **   PROGRAM PROCESS ID                                 36206
  **** **  *******  **  PROGRAM STOPPED IN /mnt/scratch2/users/40265864/MSc_ML_M
                                           M/ln_replacements/xyz/Dy_L9_L2/geomet
                                           ry_optimisation_2/run-6
