      51
 i =        1, E =      -516.0763207648
  C         1.0778022894       -0.8897479271       -0.1018377458
  O        -0.3327446571       -0.8501464407        0.3836960860
 Dy        -0.7183258302        0.8815373740        1.7802847808
  O         0.4214424956        1.8318750190        0.2067770805
  O        -1.8936220469       -0.8729264002        2.5336435247
  C        -3.1174925548       -0.6730000000        3.2646528058
  C        -4.3201141536       -1.5990168612        2.9084815640
  C        -2.9129143303       -0.0302666119        4.6524506784
  C        -1.8223131983        1.0121450098        4.9360488240
  O        -1.4438355449        1.7782869704        3.7650108857
  C        -1.6159749032        1.5407949065        6.4027821115
  O        -2.3892542541        0.4949501026        0.5211565850
  C        -2.6539425276        1.4251215016       -0.5458799061
  C        -2.9953104336        0.9179436629       -2.0065531358
  C        -3.1120519952        2.8102920983       -0.0696848999
  C        -2.7376725726        3.2955960058        1.3314364755
  O        -1.3704838453        3.0672594491        1.7101834753
  C        -3.5169038680        4.5379027439        2.0249879150
  F        -4.9444782299        4.4335410726        1.7378501509
  F        -2.9815034375        5.7243731483        1.3670425850
  F        -3.1340748853        4.6222823546        3.4212129347
  O         0.5499172887       -0.6312482124        2.7847890740
  C         1.3135275902       -0.4509160000        3.9937508902
  C         1.5208328282       -1.6208562915        4.9989799255
  C         2.3526203283        0.6786660416        3.9421084046
  C         2.1395365295        1.8153030600        2.9557388101
  O         0.7871122173        2.2670164574        2.7580765396
  C         3.3057803442        2.8975687409        2.6913450307
  F         4.6029516406        2.2307972020        2.6939706779
  F         3.0806619792        3.6999428146        3.8913723356
  F         2.9673960309        3.6738313231        1.5063763465
  H         1.8475082609       -0.9072069843        0.8115290142
  H         1.2124846539       -1.8595436709       -0.7703873187
  H         1.3115267331        0.0843154597       -0.7496165179
  H        -0.0500058215        2.1494677190       -0.6749036740
  H         1.4145295276        2.1605572761        0.3009252037
  H        -4.6346568044       -1.8402942041        4.0364598824
  H        -5.1838063234       -1.0005396435        2.3481240029
  H        -3.7411919000       -2.4762846244        2.3086720920
  H        -3.6296610446       -0.3591691221        5.5328468481
  H        -1.6646560947        0.6971154119        7.2259890614
  H        -0.6587291526        2.2442917734        6.2883812718
  H        -2.6032322449        2.2194284404        6.3095781527
  H        -3.0074081620       -0.2534535548       -1.7537672894
  H        -4.1343643019        1.2993910522       -1.9221537556
  H        -2.3629963430        1.3134182044       -2.9330120411
  H        -3.8222359625        3.4756620391       -0.7438345429
  H         1.4776521712       -1.3257198757        6.1356830376
  H         0.7613865927       -2.4415778536        4.6162499589
  H         2.6236753750       -1.8814020712        4.6243629026
  H         3.3207770078        0.6391482627        4.6192705263
      51
 i =        2, E =      -516.4755172696
  C         1.0930706075       -0.9135948348       -0.1166204796
  O        -0.3501094465       -0.8849214862        0.3684688568
 Dy        -0.7264504660        0.8711285578        1.8332131507
  O         0.4348053297        1.8016785293        0.1860459702
  O        -1.9023916101       -0.9248759216        2.5198240626
  C        -3.1050730217       -0.7685830543        3.2853814522
  C        -4.2870533657       -1.7264885385        2.8473936680
  C        -2.9249536459       -0.0373014744        4.6479756525
  C        -1.8754844088        1.0432112357        4.9755715100
  O        -1.4372738799        1.7935132217        3.8148021050
  C        -1.6436915676        1.5333943057        6.4842237004
  O        -2.4269185154        0.4799294212        0.4797261960
  C        -2.7001329170        1.4177562413       -0.5693357006
  C        -2.9516302135        0.9204058642       -2.0956153187
  C        -3.1210249723        2.8104628301       -0.0755663408
  C        -2.7214999996        3.3728732551        1.2953213743
  O        -1.3779999384        3.1059975968        1.7357385930
  C        -3.5479635685        4.6101560663        2.0498405653
  F        -5.0037285263        4.4316820190        1.7160733672
  F        -3.1250155728        5.9743731483        1.5280181426
  F        -3.1435679195        4.6593156487        3.4791711426
  O         0.5612132036       -0.6585283461        2.7941761746
  C         1.3465445702       -0.4742226876        3.9750509573
  C         1.5167763765       -1.6365574931        5.0112411494
  C         2.3611989004        0.6766042999        3.9469478058
  C         2.1312564234        1.8362210230        3.0019342311
  O         0.8038502180        2.3082666834        2.7441291725
  C         3.3249350265        2.9184076458        2.6855029100
  F         4.6440679700        2.2168389074        2.6828371594
  F         3.1060497820        3.7287081931        3.9272009186
  F         2.9581935166        3.6974951616        1.4641518247
  H         1.8776651107       -0.9103414578        0.8396645072
  H         1.2349880014       -1.9110679377       -0.8085435697
  H         1.3208512417        0.1095445707       -0.7703858584
  H        -0.0334698912        2.1905065979       -0.7205709995
  H         1.4463738846        2.2100727665        0.2817239965
  H        -4.6531206754       -1.8742977218        4.0370955104
  H        -5.1812764261       -1.0113870331        2.3329252661
  H        -3.6405628576       -2.6246918415        2.1924441743
  H        -3.6517261649       -0.3682155958        5.5673704236
  H        -1.7168562862        0.6591390353        7.3319231717
  H        -0.6479151205        2.2560403023        6.3084868394
  H        -2.6448610029        2.2587696425        6.3571174207
  H        -3.0003024792       -0.2863914529       -1.7778681262
  H        -4.1396496363        1.3034899428       -1.9652775221
  H        -2.3005102643        1.3341465428       -3.0708805839
  H        -3.8527174680        3.5024122568       -0.7662645432
  H         1.4818138016       -1.3110885475        6.1803433549
  H         0.7341531013       -2.4796991558        4.6139936027
  H         2.6579708426       -1.9061428955        4.6361432285
  H         3.3603371325        0.6361637356        4.6425957767
      51
 i =        3, E =      -514.7621886137
  C         1.0930173775       -0.9126511382       -0.1162184469
  O        -0.3475531843       -0.8825943085        0.3711116546
 Dy        -0.7295981242        0.8693496442        1.7659184054
  O         0.4340931481        1.8089384145        0.1858106081
  O        -1.8949255842       -0.9232614530        2.5198635499
  C        -3.0989780271       -0.7842370549        3.2750827600
  C        -4.2526636283       -1.7941941064        2.7955199177
  C        -2.9310833790       -0.0464265604        4.6470749985
  C        -1.8763931009        1.0455761965        4.9858384870
  O        -1.4361346694        1.7893705491        3.8171208686
  C        -1.6558691631        1.5309729097        6.5052675449
  O        -2.4148626693        0.4793458438        0.4890210998
  C        -2.6945290042        1.4159120730       -0.5707740101
  C        -2.9457831509        0.9222494722       -2.1048809440
  C        -3.1229314486        2.8157502996       -0.0766064745
  C        -2.7246090086        3.3911870970        1.2993540758
  O        -1.3781386817        3.0955485356        1.7309009658
  C        -3.5584666921        4.6541650252        2.0623386717
  F        -5.0031264809        4.4302641998        1.7216770058
  F        -3.3164055217        6.1585247677        1.7780181426
  F        -3.1497577877        4.6552214817        3.4822776336
  O         0.5563946669       -0.6545070645        2.7891026272
  C         1.3486890886       -0.4820034406        3.9782899553
  C         1.5187876178       -1.6369041154        5.0140071962
  C         2.3624750139        0.6763946789        3.9478725389
  C         2.1346990685        1.8438639018        2.9999830381
  O         0.7992259296        2.3056481402        2.7433077953
  C         3.3259498648        2.9176848751        2.6881819109
  F         4.6413227662        2.2166200181        2.6829855206
  F         3.1025570595        3.7375896009        3.9174070577
  F         2.9573573024        3.6921422493        1.4693858279
  H         1.8749154224       -0.9114732974        0.8356235349
  H         1.2347186165       -1.9077839426       -0.8058332355
  H         1.3196937149        0.1057195144       -0.7684548892
  H        -0.0343599132        2.1863560793       -0.7155050016
  H         1.4412756361        2.2063218575        0.2837713315
  H        -4.6469896661       -1.8907732848        4.0240317326
  H        -5.1705543662       -1.0276645540        2.3250055416
  H        -3.4819315246       -2.7453162796        2.0139363080
  H        -3.6513929368       -0.3681438100        5.5674928576
  H        -1.7227146700        0.6597425860        7.3426398479
  H        -0.6555424288        2.2492142474        6.3150198248
  H        -2.6465694243        2.2584874728        6.3645701841
  H        -2.9952214789       -0.2815437762       -1.7851133314
  H        -4.1339635940        1.3035700992       -1.9742546622
  H        -2.2952619678        1.3355809197       -3.0945741609
  H        -3.8508713479        3.5026603208       -0.7651629754
  H         1.4816897753       -1.3134046948        6.1764550717
  H         0.7368989302       -2.4762997781        4.6162307593
  H         2.6552903153       -1.9069610534        4.6381729020
  H         3.3572138134        0.6369621882        4.6408261418
      51
 i =        4, E =      -517.1354911347
  C         1.1163401895       -0.9438615527       -0.1373547154
  O        -0.3564390680       -0.9246629463        0.3518073037
 Dy        -0.7358168042        0.8592349260        1.8512260567
  O         0.4513666989        1.7803182630        0.1540726554
  O        -1.8969271348       -1.0106424924        2.5047750376
  C        -3.0515683871       -0.8476015720        3.2815673811
  C        -4.2353427960       -1.8488473563        2.7955215243
  C        -2.9547046864       -0.0627244460        4.6481646693
  C        -1.9243706492        1.0479467704        5.0388395276
  O        -1.4429440572        1.8085943310        3.9131308121
  C        -1.7159398380        1.5183655369        6.6012369216
  O        -2.4852571408        0.4684495093        0.4108919183
  C        -2.7099198956        1.4322454753       -0.6090410338
  C        -2.8803680018        0.9326491679       -2.2090022161
  C        -3.1383614956        2.8193167534       -0.0747417521
  C        -2.7311644537        3.5212008003        1.2690571803
  O        -1.4112392011        3.1523052712        1.7462424390
  C        -3.5551545830        4.8345693906        2.0430876101
  F        -5.0324699939        4.4238954516        1.7157944505
  F        -3.2864367834        6.3162613464        1.6458203026
  F        -3.1825802009        4.6979378071        3.5191034892
  O         0.5949601465       -0.7096573013        2.8150153798
  C         1.3656587886       -0.4825305841        3.9737633306
  C         1.5175297572       -1.6484225053        5.0068342718
  C         2.3773260285        0.6719835553        3.9534358272
  C         2.1242061084        1.8475098709        3.0296525652
  O         0.8369292782        2.3647044862        2.7414878928
  C         3.3306651291        2.9328177758        2.6975182325
  F         4.6770454215        2.2224907480        2.6667068184
  F         3.1433546954        3.7851566683        3.9540901768
  F         2.9531770953        3.7010040121        1.4322033759
  H         1.9022242014       -0.9165745400        0.8624259521
  H         1.2630801687       -1.9639934733       -0.8474562189
  H         1.3266435083        0.1271971873       -0.7885247720
  H        -0.0116959609        2.2362558131       -0.7685259722
  H         1.4716378592        2.2673028109        0.2600516251
  H        -4.6791670072       -1.9728842893        4.0279548333
  H        -5.1637733649       -1.0523324841        2.2857842081
  H        -3.5723912389       -2.9953162796        2.2093834281
  H        -3.6782286242       -0.3787800204        5.6112825018
  H        -1.8015653648        0.6293677850        7.4736426228
  H        -0.6691200472        2.2435905174        6.3529692579
  H        -2.6969671272        2.3130233468        6.4528224708
  H        -2.9833606251       -0.3063704852       -1.8359771341
  H        -4.1213274680        1.2985583991       -2.0519813939
  H        -2.2225648065        1.3541839807       -3.2711938671
  H        -3.8788828420        3.5296806950       -0.7848772754
  H         1.4869752744       -1.2977825186        6.2016349740
  H         0.7144690553       -2.5172430307        4.6229191955
  H         2.6912377623       -1.9487984955        4.6654229471
  H         3.3992502829        0.6346501473        4.6649109220
      51
 i =        5, E =      -517.4649333204
  C         1.1354136973       -0.9686424494       -0.1524823310
  O        -0.3618928013       -0.9476045216        0.3332691422
 Dy        -0.7536825581        0.8632926709        1.9523651024
  O         0.4590175125        1.7684778599        0.1408953204
  O        -1.8836320954       -1.0723249511        2.4805324901
  C        -3.0129981051       -0.9415376327        3.2888670716
  C        -4.2016804993       -1.9501894904        2.7708414391
  C        -2.9700602724       -0.0876522176        4.6477331806
  C        -1.9810135291        1.0636183616        5.1274575533
  O        -1.4481080450        1.8108051566        4.0099375278
  C        -1.8039835760        1.4957064127        6.7545978758
  O        -2.5141006957        0.4676971881        0.3435107568
  C        -2.7246319728        1.4525965971       -0.6525970162
  C        -2.7860418330        0.9644277330       -2.3495689985
  C        -3.1495844021        2.8348986186       -0.0672275798
  C        -2.7488963981        3.6898449602        1.2519023536
  O        -1.4506900935        3.1974195577        1.7561567846
  C        -3.6134067005        5.0163279155        2.1176937533
  F        -5.0970289983        4.4620516677        1.7117835130
  F        -3.1892454691        6.3349259414        1.6353474663
  F        -3.1950054197        4.8288679054        3.5931508235
  O         0.6077537744       -0.7293735600        2.8299403237
  C         1.3860997629       -0.4925772438        3.9671429662
  C         1.5203693255       -1.6600301944        5.0051188849
  C         2.3889180843        0.6696877365        3.9571654138
  C         2.1170915198        1.8555987548        3.0544811217
  O         0.8579357637        2.3969719492        2.7355479410
  C         3.3362067969        2.9434473328        2.7082658610
  F         4.7067078764        2.2322217510        2.6505583326
  F         3.1828925286        3.8236927136        3.9812930921
  F         2.9559530318        3.7061552598        1.4077224877
  H         1.9228046650       -0.9242814288        0.8809651866
  H         1.2861462555       -2.0058851503       -0.8784738824
  H         1.3291049420        0.1399224224       -0.8038982301
  H         0.0084163146        2.2691898068       -0.8039294746
  H         1.4900615958        2.3117989673        0.2437633105
  H        -4.7002497077       -2.0552625689        4.0187256399
  H        -5.1359101801       -1.1010502542        2.2483144286
  H        -3.6571318224       -3.2027169917        2.1744353124
  H        -3.6998321859       -0.3902280709        5.6390341594
  H        -1.8821485638        0.5813500435        7.6330700239
  H        -0.7082495616        2.2163539842        6.4074665129
  H        -2.7581991762        2.3608409837        6.5559486980
  H        -2.9563003593       -0.3034344720       -1.9007730613
  H        -4.0826706375        1.2933407126       -2.1409852450
  H        -2.1519626322        1.3744716300       -3.5211938671
  H        -3.8987334854        3.5502025692       -0.8023014390
  H         1.4902746312       -1.2877614263        6.2203547850
  H         0.6997667344       -2.5462700010        4.6318363615
  H         2.7189359815       -1.9854572262        4.6902158718
  H         3.4284352398        0.6344326721        4.6815271718
      51
 i =        6, E =      -517.0468136988
  C         1.1479220933       -0.9849508129       -0.1621284171
  O        -0.3627540197       -0.9589156268        0.3215239075
 Dy        -0.7578740426        0.8726699428        2.0072141518
  O         0.4627107183        1.7757267447        0.1352781860
  O        -1.8587580409       -1.1115841876        2.4497632662
  C        -2.9694506106       -1.0117608823        3.2893593937
  C        -4.1877486074       -1.9877331495        2.7765295511
  C        -2.9813227435       -0.1133925885        4.6479989583
  C        -2.0296216148        1.0770185504        5.2169558782
  O        -1.4540614346        1.7974407764        4.0879636233
  C        -1.8860573413        1.4800017400        6.8968416995
  O        -2.5261344879        0.4691269250        0.2881503349
  C        -2.7223763673        1.4774244976       -0.6878101882
  C        -2.7001436016        1.0122024059       -2.4688771554
  C        -3.1595953402        2.8549433907       -0.0698359183
  C        -2.7591129562        3.7689780227        1.2437557435
  O        -1.4753531836        3.2321842070        1.7595733859
  C        -3.6837956819        5.0707758268        2.1970957878
  F        -5.1611479635        4.5147852126        1.7201425155
  F        -3.1604362575        6.2356640165        1.6322186036
  F        -3.2131029952        4.9554890507        3.6458957865
  O         0.6117845896       -0.7332507266        2.8394374697
  C         1.3995868396       -0.5011131463        3.9650862922
  C         1.5266810156       -1.6686245024        5.0027785080
  C         2.3958110747        0.6690075259        3.9590167073
  C         2.1140232049        1.8627407878        3.0680275954
  O         0.8677444100        2.4064394078        2.7295534778
  C         3.3393283821        2.9496496773        2.7216041716
  F         4.7257173244        2.2461298326        2.6391495392
  F         3.2106186846        3.8538727906        3.9976959560
  F         2.9599458118        3.7046375133        1.3977288547
  H         1.9342773200       -0.9326638394        0.8883740607
  H         1.3023547422       -2.0300766654       -0.8955332115
  H         1.3297144204        0.1428306622       -0.8130971683
  H         0.0186947210        2.2843924213       -0.8243150341
  H         1.5007626709        2.3364585744        0.2374540239
  H        -4.7142510267       -2.1395183133        4.0093701140
  H        -5.1140977133       -1.1534318036        2.2043398038
  H        -3.6265906864       -3.1944134531        2.1371183308
  H        -3.7157086849       -0.4001135917        5.6541377224
  H        -1.9483496248        0.5548402086        7.7687451993
  H        -0.7513577626        2.1825620744        6.4714937213
  H        -2.8145745478        2.3855020803        6.6655819920
  H        -2.9170248738       -0.2766389353       -1.9714731106
  H        -4.0399837603        1.2933323087       -2.2279853288
  H        -2.1074479495        1.3482685507       -3.7711938671
  H        -3.9143877650        3.5682496371       -0.8198236334
  H         1.4918272807       -1.2834402808        6.2271128457
  H         0.6944552897       -2.5622177411        4.6420536009
  H         2.7367275797       -2.0154304072        4.7113525541
  H         3.4436489437        0.6356382450        4.6890857020
      51
 i =        7, E =      -517.6845048452
  C         1.1579762929       -0.9960208176       -0.1674109503
  O        -0.3541676674       -0.9533713652        0.3108366558
 Dy        -0.7696287310        0.8989225474        2.0405028846
  O         0.4568041677        1.8201200839        0.1454078206
  O        -1.7926437694       -1.1341883176        2.3993634464
  C        -2.9098075245       -1.1187947020        3.2673643359
  C        -4.1545211939       -2.0491468641        2.7774593267
  C        -3.0142952213       -0.1791528840        4.6401720550
  C        -2.0656056077        1.0192781465        5.2509440878
  O        -1.4571359651        1.7679511706        4.1599734659
  C        -1.8442248640        1.5489284549        6.8672875658
  O        -2.4970335949        0.4751552744        0.2349095384
  C        -2.6527534319        1.5490472948       -0.6873797658
  C        -2.7098002181        1.0181991400       -2.4220604503
  C        -3.1719340482        2.9071693350       -0.0618862164
  C        -2.7909849018        3.8940998237        1.2583048310
  O        -1.5169829332        3.2529991759        1.7449198280
  C        -3.8124108881        5.1447088002        2.3573499459
  F        -5.2539810847        4.6219386785        1.7523035605
  F        -3.0849439112        5.9856640165        1.6719650235
  F        -3.2376890667        5.1844536578        3.7243582109
  O         0.5928025515       -0.6993216966        2.8405618031
  C         1.4109520343       -0.5152192092        3.9662011828
  C         1.5431916278       -1.6766693948        4.9988466690
  C         2.3992307474        0.6704309584        3.9572151210
  C         2.1136272877        1.8719284614        3.0682092343
  O         0.8596052570        2.3798988099        2.7197228286
  C         3.3388352676        2.9476555726        2.7492735170
  F         4.7358554336        2.2744715585        2.6247317618
  F         3.2380399815        3.8972202754        3.9942395969
  F         2.9716508150        3.6859816377        1.4098491325
  H         1.9353176818       -0.9479169664        0.8814045500
  H         1.3150998237       -2.0367271487       -0.8983951497
  H         1.3241311006        0.1302870167       -0.8164520785
  H         0.0212758368        2.2771664910       -0.8271266026
  H         1.4981626261        2.3414828529        0.2436703241
  H        -4.7119925095       -2.2792997996        3.9660151288
  H        -5.0540506374       -1.2658199247        2.1335643972
  H        -3.5788416230       -3.1177159242        2.0294415321
  H        -3.7373379049       -0.4168830856        5.6656586942
  H        -2.0317979481        0.6605414071        7.7949630195
  H        -0.7155743277        2.1960649694        6.5891726967
  H        -2.8152618940        2.3462566142        6.8252070124
  H        -2.8380642142       -0.2732586604       -2.0920658338
  H        -4.0185299964        1.3163288521       -2.3770839715
  H        -2.2857949129        1.2035643824       -3.8518589364
  H        -3.9241942953        3.5853709227       -0.8394313769
  H         1.4909377093       -1.2879245711        6.2158230374
  H         0.7033696576       -2.5628412954        4.6624743170
  H         2.7463402969       -2.0517918537        4.7400033424
  H         3.4408156998        0.6409672390        4.6851937838
      51
 i =        8, E =      -517.8256631922
  C         1.1652456379       -1.0008170350       -0.1707977226
  O        -0.3468506708       -0.9550013368        0.3048201048
 Dy        -0.7768806825        0.9207875563        2.0061451197
  O         0.4546148326        1.8553846561        0.1522741006
  O        -1.7557551430       -1.1456793521        2.3680421545
  C        -2.8776052813       -1.2011805651        3.2562245342
  C        -4.1321854622       -2.1132010193        2.7797028410
  C        -3.0271463061       -0.2267098285        4.6412434567
  C        -2.1006715222        1.0050161897        5.3368943034
  O        -1.4612127804        1.7211809590        4.2196971020
  C        -1.7490567952        1.6415423849        6.9011220158
  O        -2.4694038228        0.4868393312        0.2091374365
  C        -2.6130193473        1.5902263308       -0.6961153511
  C        -2.7197526129        1.0354059571       -2.4085209502
  C        -3.1726871614        2.9540711469       -0.0679893681
  C        -2.8211948246        3.9001179898        1.2829554052
  O        -1.5491434218        3.2931736617        1.7309566525
  C        -3.8359441735        5.2151549483        2.3470357671
  F        -5.2666710379        4.7287783284        1.8091708005
  F        -3.0648758163        5.9880427757        1.7220170743
  F        -3.3253250606        5.3698794419        3.6957576652
  O         0.5753976566       -0.6660723428        2.8395626153
  C         1.4232694398       -0.5309062082        3.9678778851
  C         1.5572392832       -1.6850818645        5.0002381120
  C         2.4017036098        0.6714250100        3.9586971383
  C         2.1179404976        1.8867341375        3.0768253608
  O         0.8490884521        2.3534911466        2.7036889739
  C         3.3442019255        2.9508880163        2.7651090619
  F         4.7425903109        2.2872601243        2.6163817115
  F         3.2636561718        3.9263223876        3.9904591454
  F         2.9777631501        3.6763014387        1.4176110169
  H         1.9365180838       -0.9620195465        0.8735521846
  H         1.3234038208       -2.0386687705       -0.8979400217
  H         1.3222586423        0.1197036717       -0.8204805235
  H         0.0187346356        2.2664554569       -0.8264181642
  H         1.4974710343        2.3419966356        0.2527438799
  H        -4.6982035900       -2.4052576301        3.9356672269
  H        -5.0079724785       -1.3557747896        2.0833766287
  H        -3.5596266439       -3.2081375858        2.1216377239
  H        -3.7530949552       -0.4325913640        5.6696099304
  H        -2.1014452268        0.7319630941        7.8168771990
  H        -0.6366187536        2.2436135460        6.6946051681
  H        -2.8188933088        2.2660355841        6.9466268698
  H        -2.7569528021       -0.2572245792       -2.1990467140
  H        -4.0021359111        1.3448113404       -2.4940080528
  H        -2.5357949129        1.0330808136       -4.0454674623
  H        -3.9368744325        3.6004946533       -0.8576183777
  H         1.4900501071       -1.2918286525        6.2090250085
  H         0.7112474561       -2.5620080752        4.6771523552
  H         2.7531050299       -2.0780235732        4.7602319708
  H         3.4395478589        0.6451026182        4.6809150957
      51
 i =        9, E =      -518.1642387661
  C         1.1740156681       -1.0043582136       -0.1760705325
  O        -0.3397348535       -0.9635269520        0.3004948770
 Dy        -0.8061470446        0.9398424711        2.0166391302
  O         0.4522839176        1.8706699686        0.1596913013
  O        -1.7448795255       -1.1732608229        2.3623198446
  C        -2.8654082418       -1.2739667114        3.2603811317
  C        -4.1126489628       -2.1881981391        2.8187251315
  C        -3.0449443757       -0.2758559750        4.6502710960
  C        -2.1186707264        0.9451858269        5.3804642843
  O        -1.4681204954        1.6888295655        4.2902996091
  C        -1.7201147819        1.6505957508        6.8835196479
  O        -2.4356000266        0.5129564012        0.1905194974
  C        -2.6044838097        1.6106058524       -0.7261610376
  C        -2.6994729894        1.0448347676       -2.4453091653
  C        -3.1697102895        2.9867819811       -0.0874306443
  C        -2.8479207120        3.8544790805        1.2991199706
  O        -1.5761813875        3.3453633438        1.7269607475
  C        -3.8824337417        5.2259306140        2.3110709353
  F        -5.3066230021        4.8297804917        1.8626233561
  F        -3.0063538809        5.9997098134        1.7508864305
  F        -3.4654744326        5.6198794419        3.6476927321
  O         0.5646954731       -0.6448651291        2.8434574773
  C         1.4352049028       -0.5388223631        3.9672577890
  C         1.5666214648       -1.6920204417        5.0004153764
  C         2.4077001437        0.6703160687        3.9633057262
  C         2.1211353470        1.8961709085        3.0924770338
  O         0.8468821343        2.3402791171        2.6882872916
  C         3.3489799409        2.9559295472        2.7710911917
  F         4.7491708649        2.2939935731        2.6105653429
  F         3.2890175153        3.9451089659        3.9897497042
  F         2.9857936302        3.6752326465        1.4162869194
  H         1.9402143070       -0.9755055816        0.8702655768
  H         1.3315125623       -2.0447948968       -0.9015698852
  H         1.3227685605        0.1157418516       -0.8276918085
  H         0.0218498890        2.2646051035       -0.8273352920
  H         1.4963773686        2.3520550163        0.2565160460
  H        -4.6745534341       -2.5524432499        3.9383657589
  H        -4.9527825756       -1.4419684403        2.0567990240
  H        -3.4849065227       -3.2045648920        2.1686199186
  H        -3.7753541208       -0.4547692230        5.6816123827
  H        -2.2323336973        0.7855284748        7.8655194060
  H        -0.6223129906        2.2455368595        6.7685192686
  H        -2.8344769150        2.1901090079        7.0191293577
  H        -2.6768985940       -0.2476283006       -2.3056162215
  H        -3.9696173222        1.3628638839       -2.5872514598
  H        -2.6053428361        1.0856713509       -4.0884651965