 DBCSR| Multiplication driver                                               XSMM
 DBCSR| Multrec recursion limit                                              512
 DBCSR| Multiplication stack size                                           1000
 DBCSR| Maximum elements for images                                    UNLIMITED
 DBCSR| Multiplicative factor virtual images                                   1
 DBCSR| Randmat seed                                                    12341313
 DBCSR| Multiplication size stacks                                             3
 DBCSR| Number of 3D layers                                               SINGLE
 DBCSR| Use MPI memory allocation                                              T
 DBCSR| Use RMA algorithm                                                      F
 DBCSR| Use Communication thread                                               T
 DBCSR| Communication thread load                                             87


  **** **** ******  **  PROGRAM STARTED AT               2023-03-24 21:51:51.609
 ***** ** ***  *** **   PROGRAM STARTED ON        node131.pri.kelvin2.alces.netw
 **    ****   ******    PROGRAM STARTED BY                              40265864
 ***** **    ** ** **   PROGRAM PROCESS ID                                129160
  **** **  *******  **  PROGRAM STARTED IN /mnt/scratch2/users/40265864/MSc_ML_M
                                           M/ln_replacements/xyz/Dy_L18_L20_L20_
                                           MeO_O/geometry_optimisation/run-0

 CP2K| version string:                                          CP2K version 4.1
 CP2K| source code revision number:                                    svn:17462
 CP2K| cp2kflags: libint fftw3 libxc parallel mpi3 scalapack libxsmm libderiv_ma
 CP2K|            x_am1=5 libint_max_am=6
 CP2K| is freely available from                            https://www.cp2k.org/
 CP2K| Program compiled at                          Mon 24 Oct 18:14:20 BST 2022
 CP2K| Program compiled on                      login1.pri.kelvin2.alces.network
 CP2K| Program compiled for                                                local
 CP2K| Data directory path                      /users/40265864/source/cp2k/data
 CP2K| Input file name                                         geo-opt-relax.inp

 GLOBAL| Force Environment number                                              1
 GLOBAL| Basis set file name                                 ../BASIS_MOLOPT_UCL
 GLOBAL| Potential file name                                        ../POTENTIAL
 GLOBAL| MM Potential file name                                     MM_POTENTIAL
 GLOBAL| Coordinate file name                     ../../Dy_L18_L20_L20_MeO_O.xyz
 GLOBAL| Method name                                                        CP2K
 GLOBAL| Project name                                              molecule_name
 GLOBAL| Preferred FFT library                                             FFTW3
 GLOBAL| Preferred diagonalization lib.                                       SL
 GLOBAL| Run type                                                        GEO_OPT
 GLOBAL| All-to-all communication in single precision                          F
 GLOBAL| FFTs using library dependent lengths                                  F
 GLOBAL| Global print level                                                  LOW
 GLOBAL| Total number of message passing processes                           121
 GLOBAL| Number of threads for this process                                    1
 GLOBAL| This output is from process                                           0
 GLOBAL| CPU model name :  AMD EPYC 7702 64-Core Processor

 MEMORY| system memory details [Kb]
 MEMORY|                        rank 0           min           max       average
 MEMORY| MemTotal            792056776     792056776     792056776     792056776
 MEMORY| MemFree             733838684     733838684     733838684     733838684
 MEMORY| Buffers                271052        271052        271052        271052
 MEMORY| Cached               40483848      40483848      40483848      40483848
 MEMORY| Slab                  2859636       2859636       2859636       2859636
 MEMORY| SReclaimable          1204432       1204432       1204432       1204432
 MEMORY| MemLikelyFree       775798016     775798016     775798016     775798016


 GENERATE|  Preliminary Number of Bonds generated:                             0
 GENERATE|  Achieved consistency in connectivity generation.

 *******************************************************************************
 *******************************************************************************
 **                                                                           **
 **     #####                         ##              ##                      **
 **    ##   ##            ##          ##              ##                      **
 **   ##     ##                       ##            ######                    **
 **   ##     ##  ##   ##  ##   #####  ##  ##   ####   ##    #####    #####    **
 **   ##     ##  ##   ##  ##  ##      ## ##   ##      ##   ##   ##  ##   ##   **
 **   ##  ## ##  ##   ##  ##  ##      ####     ###    ##   ######   ######    **
 **    ##  ###   ##   ##  ##  ##      ## ##      ##   ##   ##       ##        **
 **     #######   #####   ##   #####  ##  ##  ####    ##    #####   ##        **
 **           ##                                                    ##        **
 **                                                                           **
 **                                                ... make the atoms dance   **
 **                                                                           **
 **            Copyright (C) by CP2K developers group (2000 - 2016)           **
 **                                                                           **
 *******************************************************************************


 SCF PARAMETERS         Density guess:                                   RESTART
                        --------------------------------------------------------
                        max_scf:                                              50
                        max_scf_history:                                       0
                        max_diis:                                              4
                        --------------------------------------------------------
                        eps_scf:                                        5.00E-05
                        eps_scf_history:                                0.00E+00
                        eps_diis:                                       1.00E-01
                        eps_eigval:                                     1.00E-05
                        --------------------------------------------------------
                        level_shift [a.u.]:                                 0.00
                        --------------------------------------------------------
                        Outer loop SCF in use 
                        No variables optimised in outer loop
                        eps_scf                                         5.00E-05
                        max_scf                                               20
                        No outer loop optimization
                        step_size                                       5.00E-01

 *******************************************************************************
 ***                     STARTING GEOMETRY OPTIMIZATION                      ***
 ***                                   BFGS                                  ***
 *******************************************************************************

 Spin 1

 Number of electrons:                                                         96
 Number of occupied orbitals:                                                 96
 Number of molecular orbitals:                                                96

 Spin 2

 Number of electrons:                                                         95
 Number of occupied orbitals:                                                 95
 Number of molecular orbitals:                                                95

 Number of orbital functions:                                                157
 Number of independent orbital functions:                                    157

 Extrapolation method: initial_guess

 *** WARNING in qs_initial_guess.F:262 :: User requested to restart the    ***
 *** wavefunction from the file named: molecule_name-RESTART.wfn. This     ***
 *** file does not exist. Please check the existence of the file or change ***
 *** properly the value of the keyword WFN_RESTART_FILE_NAME. Calculation  ***
 *** continues using ATOMIC GUESS.                                         ***



 SCF WAVEFUNCTION OPTIMIZATION

  ----------------------------------- OT ---------------------------------------
  Minimizer      : DIIS                : direct inversion
                                         in the iterative subspace
                                         using   7 DIIS vectors
                                         safer DIIS on
  Preconditioner : FULL_KINETIC        : inversion of T + eS
  Precond_solver : DEFAULT
  stepsize       :    0.15000000                  energy_gap     :    0.20000000
  eps_taylor     :   0.10000E-15                  max_taylor     :             4
  ----------------------------------- OT ---------------------------------------

  Step     Update method      Time    Convergence         Total energy    Change
  ------------------------------------------------------------------------------
     1 OT DIIS     0.15E+00    0.6     0.02602778      -500.5138471610 -5.01E+02
     2 OT DIIS     0.15E+00    0.4     0.02212318      -503.3319609608 -2.82E+00
     3 OT DIIS     0.15E+00    0.3     0.01326416      -508.0608882715 -4.73E+00
     4 OT DIIS     0.15E+00    0.3     0.01213299      -508.2296065158 -1.69E-01
     5 OT DIIS     0.15E+00    0.3     0.00746805      -511.4473986457 -3.22E+00
     6 OT DIIS     0.15E+00    0.3     0.00681980      -511.6719656266 -2.25E-01
     7 OT DIIS     0.15E+00    0.3     0.00524016      -512.9428338295 -1.27E+00
     8 OT DIIS     0.15E+00    0.3     0.00577993      -513.0153964098 -7.26E-02
     9 OT DIIS     0.15E+00    0.3     0.00550355      -513.3530831755 -3.38E-01
    10 OT DIIS     0.15E+00    0.3     0.00345107      -513.8259800403 -4.73E-01
    11 OT DIIS     0.15E+00    0.3     0.00251699      -514.0677479783 -2.42E-01
    12 OT DIIS     0.15E+00    0.3     0.00244886      -514.0828792295 -1.51E-02
    13 OT DIIS     0.15E+00    0.3     0.00177519      -514.3151407317 -2.32E-01
    14 OT DIIS     0.15E+00    0.3     0.00179394      -514.3616869397 -4.65E-02
    15 OT DIIS     0.15E+00    0.3     0.00144290      -514.5071037035 -1.45E-01
    16 OT DIIS     0.15E+00    0.3     0.00130796      -514.5468207847 -3.97E-02
    17 OT DIIS     0.15E+00    0.3     0.00119879      -514.6081883767 -6.14E-02
    18 OT DIIS     0.15E+00    0.3     0.00113187      -514.6439881737 -3.58E-02
    19 OT DIIS     0.15E+00    0.3     0.00105273      -514.6905114026 -4.65E-02
    20 OT DIIS     0.15E+00    0.3     0.00093729      -514.7484425075 -5.79E-02
    21 OT DIIS     0.15E+00    0.3     0.00086952      -514.7878557395 -3.94E-02
    22 OT DIIS     0.15E+00    0.3     0.00084991      -514.8177535071 -2.99E-02
    23 OT DIIS     0.15E+00    0.3     0.00081306      -514.8245357531 -6.78E-03
    24 OT DIIS     0.15E+00    0.3     0.00075979      -514.8520069865 -2.75E-02
    25 OT DIIS     0.15E+00    0.3     0.00068490      -514.8909250630 -3.89E-02
    26 OT DIIS     0.15E+00    0.3     0.00065009      -514.9080429958 -1.71E-02
    27 OT DIIS     0.15E+00    0.3     0.00062744      -514.9222909501 -1.42E-02
    28 OT DIIS     0.15E+00    0.3     0.00060828      -514.9354146986 -1.31E-02
    29 OT DIIS     0.15E+00    0.3     0.00059831      -514.9420160837 -6.60E-03
    30 OT SD       0.15E+00    0.3     0.00057710      -514.9608398734 -1.88E-02
    31 OT DIIS     0.15E+00    0.3     0.00057164      -514.9623304417 -1.49E-03
    32 OT DIIS     0.15E+00    0.3     0.00052505      -514.9967185615 -3.44E-02
    33 OT SD       0.15E+00    0.3     0.00052930      -515.0088800890 -1.22E-02
    34 OT DIIS     0.15E+00    0.3     0.00052599      -515.0101358590 -1.26E-03
    35 OT SD       0.15E+00    0.3     0.00051873      -515.0144610519 -4.33E-03
    36 OT DIIS     0.15E+00    0.3     0.00051726      -515.0156694094 -1.21E-03
    37 OT DIIS     0.15E+00    0.3     0.00051326      -515.0215516230 -5.88E-03
    38 OT SD       0.15E+00    0.3     0.00051526      -515.0259026438 -4.35E-03
    39 OT SD       0.15E+00    0.3     0.00051497      -515.0270964203 -1.19E-03
    40 OT SD       0.15E+00    0.3     0.00051492      -515.0282891406 -1.19E-03
    41 OT SD       0.15E+00    0.3     0.00051504      -515.0294818467 -1.19E-03
    42 OT SD       0.15E+00    0.3     0.00051527      -515.0306752453 -1.19E-03
    43 OT SD       0.15E+00    0.3     0.00051559      -515.0318698422 -1.19E-03
    44 OT SD       0.15E+00    0.3     0.00051598      -515.0330660186 -1.20E-03
    45 OT SD       0.15E+00    0.3     0.00051643      -515.0342640754 -1.20E-03
    46 OT SD       0.15E+00    0.3     0.00051692      -515.0354642590 -1.20E-03
    47 OT SD       0.15E+00    0.3     0.00051745      -515.0366667781 -1.20E-03
    48 OT DIIS     0.15E+00    0.3     0.00051802      -515.0378718135 -1.21E-03
    49 OT SD       0.15E+00    0.3     0.00069953      -515.0572298270 -1.94E-02
    50 OT SD       0.15E+00    0.3     0.00068364      -515.0594033932 -2.17E-03

  Leaving inner SCF loop after reaching    50 steps.


  Electronic density on regular grids:       -191.0000001102       -0.0000001102
  Core density on regular grids:              193.9999999907       -0.0000000093
  Total charge density on r-space grids:        2.9999998804
  Total charge density g-space grids:           2.9999998804

  Overlap energy of the core charge distribution:               0.00000576685054
  Self energy of the core charge distribution:              -1180.77596130715415
  Core Hamiltonian energy:                                    340.16842455498454
  Hartree energy:                                             426.86992806536227
  Exchange-correlation energy:                               -101.32180047326216

  Total energy:                                              -515.05940339321887

  outer SCF iter =    1 RMS gradient =   0.68E-03 energy =       -515.0594033932

  ----------------------------------- OT ---------------------------------------
  Minimizer      : DIIS                : direct inversion
                                         in the iterative subspace
                                         using   7 DIIS vectors
                                         safer DIIS on
  Preconditioner : FULL_KINETIC        : inversion of T + eS
  Precond_solver : DEFAULT
  stepsize       :    0.15000000                  energy_gap     :    0.20000000
  eps_taylor     :   0.10000E-15                  max_taylor     :             4
  ----------------------------------- OT ---------------------------------------

  Step     Update method      Time    Convergence         Total energy    Change
  ------------------------------------------------------------------------------
     1 OT DIIS     0.15E+00    0.6     0.00061381      -515.0614877948 -2.08E-03
     2 OT DIIS     0.15E+00    0.3     0.00059704      -515.0631579542 -1.67E-03
     3 OT DIIS     0.15E+00    0.3     0.00053342      -515.0742472372 -1.11E-02
     4 OT DIIS     0.15E+00    0.3     0.00050430      -515.0861141038 -1.19E-02
     5 OT DIIS     0.15E+00    0.3     0.00048975      -515.0952772128 -9.16E-03
     6 OT DIIS     0.15E+00    0.3     0.00048214      -515.1033915976 -8.11E-03
     7 OT SD       0.15E+00    0.3     0.00046690      -515.1230323647 -1.96E-02
     8 OT DIIS     0.15E+00    0.3     0.00046487      -515.1240105545 -9.78E-04
     9 OT DIIS     0.15E+00    0.3     0.00044503      -515.1497446208 -2.57E-02
    10 OT DIIS     0.15E+00    0.3     0.00043347      -515.1670012518 -1.73E-02
    11 OT DIIS     0.15E+00    0.3     0.00041184      -515.1856464621 -1.86E-02
    12 OT DIIS     0.15E+00    0.3     0.00039733      -515.1977543421 -1.21E-02
    13 OT DIIS     0.15E+00    0.3     0.00038896      -515.2051458539 -7.39E-03
    14 OT DIIS     0.15E+00    0.3     0.00037443      -515.2138891205 -8.74E-03
    15 OT DIIS     0.15E+00    0.3     0.00033786      -515.2353032083 -2.14E-02
    16 OT SD       0.15E+00    0.3     0.00028864      -515.2557396329 -2.04E-02
    17 OT DIIS     0.15E+00    0.3     0.00028193      -515.2561097517 -3.70E-04
    18 OT SD       0.15E+00    0.3     0.00023235      -515.2687449263 -1.26E-02
    19 OT DIIS     0.15E+00    0.3     0.00022917      -515.2689859781 -2.41E-04
    20 OT DIIS     0.15E+00    0.3     0.00021579      -515.2737020497 -4.72E-03
    21 OT DIIS     0.15E+00    0.3     0.00019972      -515.2772365917 -3.53E-03
    22 OT SD       0.15E+00    0.3     0.00019406      -515.2794686869 -2.23E-03
    23 OT DIIS     0.15E+00    0.3     0.00019241      -515.2796373114 -1.69E-04
    24 OT DIIS     0.15E+00    0.3     0.00018395      -515.2830667107 -3.43E-03
    25 OT DIIS     0.15E+00    0.3     0.00017881      -515.2856208526 -2.55E-03
    26 OT DIIS     0.15E+00    0.3     0.00017723      -515.2861663936 -5.46E-04
    27 OT DIIS     0.15E+00    0.3     0.00017513      -515.2872210683 -1.05E-03
    28 OT DIIS     0.15E+00    0.3     0.00017201      -515.2895777685 -2.36E-03
    29 OT DIIS     0.15E+00    0.3     0.00017132      -515.2901239069 -5.46E-04
    30 OT DIIS     0.15E+00    0.3     0.00016882      -515.2931908803 -3.07E-03
    31 OT DIIS     0.15E+00    0.3     0.00016864      -515.2937659053 -5.75E-04
    32 OT DIIS     0.15E+00    0.3     0.00016819      -515.2942858006 -5.20E-04
    33 OT DIIS     0.15E+00    0.3     0.00016768      -515.2956478390 -1.36E-03
    34 OT DIIS     0.15E+00    0.3     0.00016734      -515.2963659801 -7.18E-04
    35 OT DIIS     0.15E+00    0.3     0.00016722      -515.2968257440 -4.60E-04
    36 OT SD       0.15E+00    0.3     0.00016719      -515.2974142193 -5.88E-04
    37 OT SD       0.15E+00    0.3     0.00016721      -515.2975399591 -1.26E-04
    38 OT SD       0.15E+00    0.3     0.00016724      -515.2976657333 -1.26E-04
    39 OT SD       0.15E+00    0.3     0.00016727      -515.2977915472 -1.26E-04
    40 OT SD       0.15E+00    0.3     0.00016730      -515.2979174055 -1.26E-04
    41 OT SD       0.15E+00    0.3     0.00016733      -515.2980433122 -1.26E-04
    42 OT SD       0.15E+00    0.3     0.00016737      -515.2981692712 -1.26E-04
    43 OT SD       0.15E+00    0.3     0.00016741      -515.2982952857 -1.26E-04
    44 OT SD       0.15E+00    0.3     0.00016745      -515.2984213589 -1.26E-04
    45 OT SD       0.15E+00    0.3     0.00016749      -515.2985474940 -1.26E-04
    46 OT SD       0.15E+00    0.3     0.00016753      -515.2986736936 -1.26E-04
    47 OT SD       0.15E+00    0.3     0.00016758      -515.2987999606 -1.26E-04
    48 OT SD       0.15E+00    0.3     0.00016763      -515.2989262975 -1.26E-04
    49 OT SD       0.15E+00    0.3     0.00016768      -515.2990527068 -1.26E-04
    50 OT SD       0.15E+00    0.3     0.00016773      -515.2991791909 -1.26E-04

  Leaving inner SCF loop after reaching    50 steps.


  Electronic density on regular grids:       -190.9999999665        0.0000000335
  Core density on regular grids:              193.9999999907       -0.0000000093
  Total charge density on r-space grids:        3.0000000241
  Total charge density g-space grids:           3.0000000241

  Overlap energy of the core charge distribution:               0.00000576685054
  Self energy of the core charge distribution:              -1180.77596130715415
  Core Hamiltonian energy:                                    340.11541234883771
  Hartree energy:                                             426.88421516029223
  Exchange-correlation energy:                               -101.52285115970552

  Total energy:                                              -515.29917919087916

  outer SCF iter =    2 RMS gradient =   0.17E-03 energy =       -515.2991791909

  ----------------------------------- OT ---------------------------------------
  Minimizer      : DIIS                : direct inversion
                                         in the iterative subspace
                                         using   7 DIIS vectors
                                         safer DIIS on
  Preconditioner : FULL_KINETIC        : inversion of T + eS
  Precond_solver : DEFAULT
  stepsize       :    0.15000000                  energy_gap     :    0.20000000
  eps_taylor     :   0.10000E-15                  max_taylor     :             4
  ----------------------------------- OT ---------------------------------------

  Step     Update method      Time    Convergence         Total energy    Change
  ------------------------------------------------------------------------------
     1 OT DIIS     0.15E+00    0.6     0.00018230      -515.2993057520 -1.27E-04
     2 OT DIIS     0.15E+00    0.3     0.00018191      -515.2994550758 -1.49E-04
     3 OT DIIS     0.15E+00    0.3     0.00017932      -515.3013659410 -1.91E-03
     4 OT DIIS     0.15E+00    0.3     0.00017817      -515.3035414165 -2.18E-03
     5 OT DIIS     0.15E+00    0.3     0.00017809      -515.3037623028 -2.21E-04
     6 OT DIIS     0.15E+00    0.3     0.00017796      -515.3050087288 -1.25E-03
     7 OT SD       0.15E+00    0.3     0.00017798      -515.3051227295 -1.14E-04
     8 OT SD       0.15E+00    0.3     0.00017799      -515.3052652136 -1.42E-04
     9 OT SD       0.15E+00    0.3     0.00017802      -515.3054077277 -1.43E-04
    10 OT SD       0.15E+00    0.3     0.00017804      -515.3055502789 -1.43E-04
    11 OT SD       0.15E+00    0.3     0.00017807      -515.3056928730 -1.43E-04
    12 OT SD       0.15E+00    0.3     0.00017810      -515.3058355152 -1.43E-04
    13 OT SD       0.15E+00    0.3     0.00017814      -515.3059782096 -1.43E-04
    14 OT SD       0.15E+00    0.3     0.00017817      -515.3061209605 -1.43E-04
    15 OT SD       0.15E+00    0.3     0.00017821      -515.3062637712 -1.43E-04
    16 OT SD       0.15E+00    0.3     0.00017825      -515.3064066453 -1.43E-04
    17 OT SD       0.15E+00    0.3     0.00017830      -515.3065495857 -1.43E-04
    18 OT SD       0.15E+00    0.3     0.00017834      -515.3066925954 -1.43E-04
    19 OT SD       0.15E+00    0.3     0.00017839      -515.3068356772 -1.43E-04
    20 OT SD       0.15E+00    0.3     0.00017844      -515.3069788335 -1.43E-04
    21 OT SD       0.15E+00    0.3     0.00017848      -515.3071220669 -1.43E-04
    22 OT SD       0.15E+00    0.3     0.00017853      -515.3072653796 -1.43E-04
    23 OT SD       0.15E+00    0.3     0.00017859      -515.3074087740 -1.43E-04
    24 OT SD       0.15E+00    0.3     0.00017864      -515.3075522521 -1.43E-04
    25 OT SD       0.15E+00    0.3     0.00017869      -515.3076958160 -1.44E-04
    26 OT SD       0.15E+00    0.3     0.00017875      -515.3078394676 -1.44E-04
    27 OT SD       0.15E+00    0.3     0.00017881      -515.3079832089 -1.44E-04
    28 OT SD       0.15E+00    0.3     0.00017886      -515.3081270418 -1.44E-04
    29 OT SD       0.15E+00    0.3     0.00017892      -515.3082709679 -1.44E-04
    30 OT SD       0.15E+00    0.3     0.00017898      -515.3084149891 -1.44E-04
    31 OT SD       0.15E+00    0.3     0.00017904      -515.3085591069 -1.44E-04
    32 OT SD       0.15E+00    0.3     0.00017910      -515.3087033231 -1.44E-04
    33 OT SD       0.15E+00    0.3     0.00017917      -515.3088476387 -1.44E-04
    34 OT SD       0.15E+00    0.3     0.00017923      -515.3089920561 -1.44E-04
    35 OT SD       0.15E+00    0.3     0.00017930      -515.3091365764 -1.45E-04
    36 OT SD       0.15E+00    0.3     0.00017936      -515.3092812010 -1.45E-04
    37 OT SD       0.15E+00    0.3     0.00017943      -515.3094259314 -1.45E-04
    38 OT SD       0.15E+00    0.3     0.00017949      -515.3095707689 -1.45E-04
    39 OT SD       0.15E+00    0.3     0.00017956      -515.3097157149 -1.45E-04
    40 OT SD       0.15E+00    0.3     0.00017963      -515.3098607707 -1.45E-04
    41 OT SD       0.15E+00    0.3     0.00017970      -515.3100059375 -1.45E-04
    42 OT SD       0.15E+00    0.3     0.00017977      -515.3101512166 -1.45E-04
    43 OT SD       0.15E+00    0.3     0.00017984      -515.3102966092 -1.45E-04
    44 OT SD       0.15E+00    0.3     0.00017991      -515.3104421164 -1.46E-04
    45 OT SD       0.15E+00    0.3     0.00017998      -515.3105877395 -1.46E-04
    46 OT SD       0.15E+00    0.3     0.00018006      -515.3107334796 -1.46E-04
    47 OT SD       0.15E+00    0.3     0.00018013      -515.3108793377 -1.46E-04
    48 OT SD       0.15E+00    0.3     0.00018020      -515.3110253149 -1.46E-04
    49 OT SD       0.15E+00    0.3     0.00018028      -515.3111714123 -1.46E-04
    50 OT SD       0.15E+00    0.3     0.00018035      -515.3113176308 -1.46E-04

  Leaving inner SCF loop after reaching    50 steps.


  Electronic density on regular grids:       -190.9999999665        0.0000000335
  Core density on regular grids:              193.9999999907       -0.0000000093
  Total charge density on r-space grids:        3.0000000242
  Total charge density g-space grids:           3.0000000242

  Overlap energy of the core charge distribution:               0.00000576685054
  Self energy of the core charge distribution:              -1180.77596130715415
  Core Hamiltonian energy:                                    340.12834609185057
  Hartree energy:                                             426.86992884255579
  Exchange-correlation energy:                               -101.53363702491089

  Total energy:                                              -515.31131763080816

  outer SCF iter =    3 RMS gradient =   0.18E-03 energy =       -515.3113176308

  ----------------------------------- OT ---------------------------------------
  Minimizer      : DIIS                : direct inversion
                                         in the iterative subspace
                                         using   7 DIIS vectors
                                         safer DIIS on
  Preconditioner : FULL_KINETIC        : inversion of T + eS
  Precond_solver : DEFAULT
  stepsize       :    0.15000000                  energy_gap     :    0.20000000
  eps_taylor     :   0.10000E-15                  max_taylor     :             4
  ----------------------------------- OT ---------------------------------------

  Step     Update method      Time    Convergence         Total energy    Change
  ------------------------------------------------------------------------------
     1 OT DIIS     0.15E+00    0.6     0.00017964      -515.3114639715 -1.46E-04
     2 OT SD       0.15E+00    0.3     0.00017969      -515.3116091449 -1.45E-04
     3 OT SD       0.15E+00    0.3     0.00017975      -515.3117544090 -1.45E-04
     4 OT SD       0.15E+00    0.3     0.00017981      -515.3118997673 -1.45E-04
     5 OT SD       0.15E+00    0.3     0.00017987      -515.3120452227 -1.45E-04
     6 OT SD       0.15E+00    0.3     0.00017993      -515.3121907776 -1.46E-04
     7 OT SD       0.15E+00    0.3     0.00018000      -515.3123364341 -1.46E-04
     8 OT SD       0.15E+00    0.3     0.00018006      -515.3124821943 -1.46E-04
     9 OT SD       0.15E+00    0.3     0.00018013      -515.3126280599 -1.46E-04
    10 OT SD       0.15E+00    0.3     0.00018020      -515.3127740326 -1.46E-04
    11 OT SD       0.15E+00    0.3     0.00018026      -515.3129201140 -1.46E-04
    12 OT SD       0.15E+00    0.3     0.00018033      -515.3130663055 -1.46E-04
    13 OT SD       0.15E+00    0.3     0.00018040      -515.3132126085 -1.46E-04
    14 OT SD       0.15E+00    0.3     0.00018047      -515.3133590243 -1.46E-04
    15 OT SD       0.15E+00    0.3     0.00018054      -515.3135055541 -1.47E-04
    16 OT SD       0.15E+00    0.3     0.00018061      -515.3136521991 -1.47E-04
    17 OT SD       0.15E+00    0.3     0.00018069      -515.3137989605 -1.47E-04
    18 OT SD       0.15E+00    0.3     0.00018076      -515.3139458392 -1.47E-04
    19 OT SD       0.15E+00    0.3     0.00018083      -515.3140928364 -1.47E-04
    20 OT SD       0.15E+00    0.3     0.00018091      -515.3142399530 -1.47E-04
    21 OT SD       0.15E+00    0.3     0.00018098      -515.3143871901 -1.47E-04
    22 OT SD       0.15E+00    0.3     0.00018105      -515.3145345484 -1.47E-04
    23 OT SD       0.15E+00    0.3     0.00018113      -515.3146820289 -1.47E-04
    24 OT SD       0.15E+00    0.3     0.00018121      -515.3148296324 -1.48E-04
    25 OT SD       0.15E+00    0.3     0.00018128      -515.3149773598 -1.48E-04
    26 OT SD       0.15E+00    0.3     0.00018136      -515.3151252118 -1.48E-04
    27 OT SD       0.15E+00    0.3     0.00018144      -515.3152731892 -1.48E-04
    28 OT SD       0.15E+00    0.3     0.00018151      -515.3154212927 -1.48E-04
    29 OT SD       0.15E+00    0.3     0.00018159      -515.3155695231 -1.48E-04
    30 OT SD       0.15E+00    0.3     0.00018167      -515.3157178810 -1.48E-04
    31 OT SD       0.15E+00    0.3     0.00018175      -515.3158663671 -1.48E-04
    32 OT SD       0.15E+00    0.3     0.00018183      -515.3160149820 -1.49E-04
    33 OT SD       0.15E+00    0.3     0.00018191      -515.3161637263 -1.49E-04
    34 OT SD       0.15E+00    0.3     0.00018199      -515.3163126006 -1.49E-04
    35 OT SD       0.15E+00    0.3     0.00018207      -515.3164616055 -1.49E-04
    36 OT SD       0.15E+00    0.3     0.00018215      -515.3166107416 -1.49E-04
    37 OT SD       0.15E+00    0.3     0.00018223      -515.3167600094 -1.49E-04
    38 OT SD       0.15E+00    0.3     0.00018231      -515.3169094093 -1.49E-04
    39 OT SD       0.15E+00    0.3     0.00018239      -515.3170589419 -1.50E-04
    40 OT SD       0.15E+00    0.3     0.00018247      -515.3172086077 -1.50E-04
    41 OT SD       0.15E+00    0.3     0.00018255      -515.3173584072 -1.50E-04
    42 OT SD       0.15E+00    0.3     0.00018263      -515.3175083407 -1.50E-04
    43 OT SD       0.15E+00    0.3     0.00018272      -515.3176584087 -1.50E-04
    44 OT SD       0.15E+00    0.3     0.00018280      -515.3178086117 -1.50E-04
    45 OT SD       0.15E+00    0.3     0.00018288      -515.3179589500 -1.50E-04
    46 OT SD       0.15E+00    0.3     0.00018296      -515.3181094241 -1.50E-04
    47 OT SD       0.15E+00    0.3     0.00018305      -515.3182600342 -1.51E-04
    48 OT SD       0.15E+00    0.3     0.00018313      -515.3184107808 -1.51E-04
    49 OT SD       0.15E+00    0.3     0.00018321      -515.3185616642 -1.51E-04
    50 OT SD       0.15E+00    0.3     0.00018330      -515.3187126847 -1.51E-04

  Leaving inner SCF loop after reaching    50 steps.


  Electronic density on regular grids:       -190.9999999667        0.0000000333
  Core density on regular grids:              193.9999999907       -0.0000000093
  Total charge density on r-space grids:        3.0000000240
  Total charge density g-space grids:           3.0000000240

  Overlap energy of the core charge distribution:               0.00000576685054
  Self energy of the core charge distribution:              -1180.77596130715415
  Core Hamiltonian energy:                                    340.12174049771204
  Hartree energy:                                             426.87397921226375
  Exchange-correlation energy:                               -101.53847685434437

  Total energy:                                              -515.31871268467216

  outer SCF iter =    4 RMS gradient =   0.18E-03 energy =       -515.3187126847

  ----------------------------------- OT ---------------------------------------
  Minimizer      : DIIS                : direct inversion
                                         in the iterative subspace
                                         using   7 DIIS vectors
                                         safer DIIS on
  Preconditioner : FULL_KINETIC        : inversion of T + eS
  Precond_solver : DEFAULT
  stepsize       :    0.15000000                  energy_gap     :    0.20000000
  eps_taylor     :   0.10000E-15                  max_taylor     :             4
  ----------------------------------- OT ---------------------------------------

  Step     Update method      Time    Convergence         Total energy    Change
  ------------------------------------------------------------------------------
     1 OT DIIS     0.15E+00    0.6     0.00018277      -515.3188638426 -1.51E-04
     2 OT SD       0.15E+00    0.3     0.00018284      -515.3190141272 -1.50E-04
     3 OT SD       0.15E+00    0.3     0.00018292      -515.3191645329 -1.50E-04
     4 OT SD       0.15E+00    0.3     0.00018299      -515.3193150611 -1.51E-04
     5 OT SD       0.15E+00    0.3     0.00018307      -515.3194657129 -1.51E-04
     6 OT SD       0.15E+00    0.3     0.00018314      -515.3196164893 -1.51E-04
     7 OT SD       0.15E+00    0.3     0.00018322      -515.3197673912 -1.51E-04
     8 OT SD       0.15E+00    0.3     0.00018330      -515.3199184193 -1.51E-04
     9 OT SD       0.15E+00    0.3     0.00018337      -515.3200695743 -1.51E-04
    10 OT SD       0.15E+00    0.3     0.00018345      -515.3202208569 -1.51E-04
    11 OT SD       0.15E+00    0.3     0.00018353      -515.3203722677 -1.51E-04
    12 OT SD       0.15E+00    0.3     0.00018361      -515.3205238071 -1.52E-04
    13 OT SD       0.15E+00    0.3     0.00018369      -515.3206754757 -1.52E-04
    14 OT SD       0.15E+00    0.3     0.00018376      -515.3208272739 -1.52E-04
    15 OT SD       0.15E+00    0.3     0.00018384      -515.3209792021 -1.52E-04
    16 OT SD       0.15E+00    0.3     0.00018392      -515.3211312609 -1.52E-04
    17 OT SD       0.15E+00    0.3     0.00018400      -515.3212834505 -1.52E-04
    18 OT SD       0.15E+00    0.3     0.00018408      -515.3214357712 -1.52E-04
    19 OT SD       0.15E+00    0.3     0.00018416      -515.3215882236 -1.52E-04
    20 OT SD       0.15E+00    0.3     0.00018424      -515.3217408077 -1.53E-04
    21 OT SD       0.15E+00    0.3     0.00018432      -515.3218935240 -1.53E-04
    22 OT SD       0.15E+00    0.3     0.00018440      -515.3220463727 -1.53E-04
    23 OT SD       0.15E+00    0.3     0.00018448      -515.3221993540 -1.53E-04
    24 OT SD       0.15E+00    0.3     0.00018456      -515.3223524682 -1.53E-04
    25 OT SD       0.15E+00    0.3     0.00018464      -515.3225057156 -1.53E-04
    26 OT SD       0.15E+00    0.3     0.00018472      -515.3226590963 -1.53E-04
    27 OT SD       0.15E+00    0.3     0.00018480      -515.3228126105 -1.54E-04
    28 OT SD       0.15E+00    0.3     0.00018488      -515.3229662585 -1.54E-04
    29 OT SD       0.15E+00    0.3     0.00018496      -515.3231200403 -1.54E-04
    30 OT SD       0.15E+00    0.3     0.00018504      -515.3232739562 -1.54E-04
    31 OT SD       0.15E+00    0.3     0.00018512      -515.3234280062 -1.54E-04
    32 OT SD       0.15E+00    0.3     0.00018520      -515.3235821906 -1.54E-04
    33 OT SD       0.15E+00    0.3     0.00018528      -515.3237365093 -1.54E-04
    34 OT SD       0.15E+00    0.3     0.00018537      -515.3238909627 -1.54E-04
    35 OT SD       0.15E+00    0.3     0.00018545      -515.3240455506 -1.55E-04
    36 OT SD       0.15E+00    0.3     0.00018553      -515.3242002734 -1.55E-04
    37 OT SD       0.15E+00    0.3     0.00018561      -515.3243551309 -1.55E-04
    38 OT SD       0.15E+00    0.3     0.00018569      -515.3245101233 -1.55E-04
    39 OT SD       0.15E+00    0.3     0.00018577      -515.3246652507 -1.55E-04
    40 OT SD       0.15E+00    0.3     0.00018585      -515.3248205130 -1.55E-04
    41 OT SD       0.15E+00    0.3     0.00018593      -515.3249759104 -1.55E-04
    42 OT SD       0.15E+00    0.3     0.00018601      -515.3251314429 -1.56E-04
    43 OT DIIS     0.15E+00    0.3     0.00018609      -515.3252871105 -1.56E-04
    44 OT SD       0.15E+00    0.3     0.00037410      -515.3300302019 -4.74E-03
    45 OT SD       0.15E+00    0.3     0.00035021      -515.3306386470 -6.08E-04
    46 OT SD       0.15E+00    0.3     0.00033177      -515.3311750999 -5.36E-04
    47 OT SD       0.15E+00    0.3     0.00031738      -515.3316589564 -4.84E-04
    48 OT SD       0.15E+00    0.3     0.00030600      -515.3321035294 -4.45E-04
    49 OT SD       0.15E+00    0.3     0.00029689      -515.3325181471 -4.15E-04
    50 OT DIIS     0.15E+00    0.3     0.00028950      -515.3329094696 -3.91E-04

  Leaving inner SCF loop after reaching    50 steps.


  Electronic density on regular grids:       -190.9999993240        0.0000006760
  Core density on regular grids:              193.9999999907       -0.0000000093
  Total charge density on r-space grids:        3.0000006667
  Total charge density g-space grids:           3.0000006667

  Overlap energy of the core charge distribution:               0.00000576685054
  Self energy of the core charge distribution:              -1180.77596130715415
  Core Hamiltonian energy:                                    340.47988221330678
  Hartree energy:                                             426.56955545059145
  Exchange-correlation energy:                               -101.60639159322236

  Total energy:                                              -515.33290946962779

  outer SCF iter =    5 RMS gradient =   0.29E-03 energy =       -515.3329094696

  ----------------------------------- OT ---------------------------------------
  Minimizer      : DIIS                : direct inversion
                                         in the iterative subspace
                                         using   7 DIIS vectors
                                         safer DIIS on
  Preconditioner : FULL_KINETIC        : inversion of T + eS
  Precond_solver : DEFAULT
  stepsize       :    0.15000000                  energy_gap     :    0.20000000
  eps_taylor     :   0.10000E-15                  max_taylor     :             4
  ----------------------------------- OT ---------------------------------------

  Step     Update method      Time    Convergence         Total energy    Change
  ------------------------------------------------------------------------------
     1 OT DIIS     0.15E+00    0.6     0.00022572      -515.3481710519 -1.53E-02
     2 OT DIIS     0.15E+00    0.3     0.00022551      -515.3484008418 -2.30E-04
     3 OT SD       0.15E+00    0.3     0.00022525      -515.3493343428 -9.34E-04
     4 OT SD       0.15E+00    0.3     0.00022529      -515.3495625716 -2.28E-04
     5 OT SD       0.15E+00    0.3     0.00022534      -515.3497908927 -2.28E-04
     6 OT SD       0.15E+00    0.3     0.00022541      -515.3500193348 -2.28E-04
     7 OT SD       0.15E+00    0.3     0.00022549      -515.3502479196 -2.29E-04
     8 OT SD       0.15E+00    0.3     0.00022557      -515.3504766650 -2.29E-04
     9 OT SD       0.15E+00    0.3     0.00022566      -515.3507055859 -2.29E-04
    10 OT SD       0.15E+00    0.3     0.00022576      -515.3509346950 -2.29E-04
    11 OT SD       0.15E+00    0.3     0.00022586      -515.3511640035 -2.29E-04
    12 OT SD       0.15E+00    0.3     0.00022597      -515.3513935213 -2.30E-04
    13 OT SD       0.15E+00    0.3     0.00022608      -515.3516232572 -2.30E-04
    14 OT SD       0.15E+00    0.3     0.00022619      -515.3518532190 -2.30E-04
    15 OT SD       0.15E+00    0.3     0.00022631      -515.3520834138 -2.30E-04
    16 OT SD       0.15E+00    0.3     0.00022643      -515.3523138481 -2.30E-04
    17 OT SD       0.15E+00    0.3     0.00022655      -515.3525445277 -2.31E-04
    18 OT SD       0.15E+00    0.3     0.00022668      -515.3527754581 -2.31E-04
    19 OT SD       0.15E+00    0.3     0.00022680      -515.3530066441 -2.31E-04
    20 OT SD       0.15E+00    0.3     0.00022693      -515.3532380904 -2.31E-04
    21 OT SD       0.15E+00    0.3     0.00022706      -515.3534698012 -2.32E-04
    22 OT SD       0.15E+00    0.3     0.00022720      -515.3537017805 -2.32E-04
    23 OT SD       0.15E+00    0.3     0.00022733      -515.3539340319 -2.32E-04
    24 OT SD       0.15E+00    0.3     0.00022747      -515.3541665589 -2.33E-04
    25 OT SD       0.15E+00    0.3     0.00022760      -515.3543993647 -2.33E-04
    26 OT SD       0.15E+00    0.3     0.00022774      -515.3546324523 -2.33E-04
    27 OT SD       0.15E+00    0.3     0.00022788      -515.3548658244 -2.33E-04
    28 OT SD       0.15E+00    0.3     0.00022802      -515.3550994837 -2.34E-04
    29 OT SD       0.15E+00    0.3     0.00022817      -515.3553334328 -2.34E-04
    30 OT SD       0.15E+00    0.3     0.00022831      -515.3555676738 -2.34E-04
    31 OT SD       0.15E+00    0.3     0.00022845      -515.3558022092 -2.35E-04
    32 OT SD       0.15E+00    0.3     0.00022860      -515.3560370408 -2.35E-04
    33 OT SD       0.15E+00    0.3     0.00022874      -515.3562721707 -2.35E-04
    34 OT SD       0.15E+00    0.3     0.00022889      -515.3565076006 -2.35E-04
    35 OT SD       0.15E+00    0.3     0.00022904      -515.3567433325 -2.36E-04
    36 OT SD       0.15E+00    0.3     0.00022919      -515.3569793678 -2.36E-04
    37 OT SD       0.15E+00    0.3     0.00022933      -515.3572157081 -2.36E-04
    38 OT SD       0.15E+00    0.3     0.00022948      -515.3574523549 -2.37E-04
    39 OT SD       0.15E+00    0.3     0.00022963      -515.3576893097 -2.37E-04
    40 OT SD       0.15E+00    0.3     0.00022978      -515.3579265736 -2.37E-04
    41 OT SD       0.15E+00    0.3     0.00022993      -515.3581641479 -2.38E-04
    42 OT SD       0.15E+00    0.3     0.00023008      -515.3584020339 -2.38E-04
    43 OT SD       0.15E+00    0.3     0.00023024      -515.3586402325 -2.38E-04
    44 OT SD       0.15E+00    0.3     0.00023039      -515.3588787449 -2.39E-04
    45 OT SD       0.15E+00    0.3     0.00023054      -515.3591175720 -2.39E-04
    46 OT SD       0.15E+00    0.3     0.00023069      -515.3593567148 -2.39E-04
    47 OT SD       0.15E+00    0.3     0.00023084      -515.3595961741 -2.39E-04
    48 OT SD       0.15E+00    0.3     0.00023100      -515.3598359508 -2.40E-04
    49 OT SD       0.15E+00    0.3     0.00023115      -515.3600760457 -2.40E-04
    50 OT SD       0.15E+00    0.3     0.00023130      -515.3603164595 -2.40E-04

  Leaving inner SCF loop after reaching    50 steps.


  Electronic density on regular grids:       -190.9999999665        0.0000000335
  Core density on regular grids:              193.9999999907       -0.0000000093
  Total charge density on r-space grids:        3.0000000241
  Total charge density g-space grids:           3.0000000241

  Overlap energy of the core charge distribution:               0.00000576685054
  Self energy of the core charge distribution:              -1180.77596130715415
  Core Hamiltonian energy:                                    340.11983095412825
  Hartree energy:                                             426.87505514735778
  Exchange-correlation energy:                               -101.57924702064025

  Total energy:                                              -515.36031645945786

  outer SCF iter =    6 RMS gradient =   0.23E-03 energy =       -515.3603164595

  ----------------------------------- OT ---------------------------------------
  Minimizer      : DIIS                : direct inversion
                                         in the iterative subspace
                                         using   7 DIIS vectors
                                         safer DIIS on
  Preconditioner : FULL_KINETIC        : inversion of T + eS
  Precond_solver : DEFAULT
  stepsize       :    0.15000000                  energy_gap     :    0.20000000
  eps_taylor     :   0.10000E-15                  max_taylor     :             4
  ----------------------------------- OT ---------------------------------------

  Step     Update method      Time    Convergence         Total energy    Change
  ------------------------------------------------------------------------------
     1 OT DIIS     0.15E+00    0.6     0.00023228      -515.3605571928 -2.41E-04
     2 OT SD       0.15E+00    0.3     0.00023239      -515.3607999348 -2.43E-04
     3 OT SD       0.15E+00    0.3     0.00023251      -515.3610429148 -2.43E-04
     4 OT SD       0.15E+00    0.3     0.00023263      -515.3612861412 -2.43E-04
     5 OT SD       0.15E+00    0.3     0.00023275      -515.3615296204 -2.43E-04
     6 OT SD       0.15E+00    0.3     0.00023288      -515.3617733578 -2.44E-04
     7 OT SD       0.15E+00    0.3     0.00023300      -515.3620173578 -2.44E-04
     8 OT SD       0.15E+00    0.3     0.00023313      -515.3622616239 -2.44E-04
     9 OT SD       0.15E+00    0.3     0.00023326      -515.3625061596 -2.45E-04
    10 OT SD       0.15E+00    0.3     0.00023339      -515.3627509675 -2.45E-04
    11 OT SD       0.15E+00    0.3     0.00023352      -515.3629960501 -2.45E-04
    12 OT SD       0.15E+00    0.3     0.00023365      -515.3632414096 -2.45E-04
    13 OT SD       0.15E+00    0.3     0.00023379      -515.3634870481 -2.46E-04
    14 OT SD       0.15E+00    0.3     0.00023392      -515.3637329672 -2.46E-04
    15 OT SD       0.15E+00    0.3     0.00023406      -515.3639791687 -2.46E-04
    16 OT SD       0.15E+00    0.3     0.00023419      -515.3642256540 -2.46E-04
    17 OT SD       0.15E+00    0.3     0.00023433      -515.3644724245 -2.47E-04
    18 OT SD       0.15E+00    0.3     0.00023446      -515.3647194814 -2.47E-04
    19 OT SD       0.15E+00    0.3     0.00023460      -515.3649668259 -2.47E-04
    20 OT SD       0.15E+00    0.3     0.00023474      -515.3652144589 -2.48E-04
    21 OT SD       0.15E+00    0.3     0.00023487      -515.3654623815 -2.48E-04
    22 OT SD       0.15E+00    0.3     0.00023501      -515.3657105946 -2.48E-04
    23 OT SD       0.15E+00    0.3     0.00023515      -515.3659590989 -2.49E-04
    24 OT SD       0.15E+00    0.3     0.00023529      -515.3662078953 -2.49E-04
    25 OT SD       0.15E+00    0.3     0.00023543      -515.3664569843 -2.49E-04
    26 OT SD       0.15E+00    0.3     0.00023557      -515.3667063667 -2.49E-04
    27 OT SD       0.15E+00    0.3     0.00023570      -515.3669560429 -2.50E-04
    28 OT SD       0.15E+00    0.3     0.00023584      -515.3672060136 -2.50E-04
    29 OT SD       0.15E+00    0.3     0.00023598      -515.3674562791 -2.50E-04
    30 OT SD       0.15E+00    0.3     0.00023612      -515.3677068399 -2.51E-04
    31 OT SD       0.15E+00    0.3     0.00023626      -515.3679576964 -2.51E-04
    32 OT SD       0.15E+00    0.3     0.00023640      -515.3682088489 -2.51E-04
    33 OT SD       0.15E+00    0.3     0.00023654      -515.3684602977 -2.51E-04
    34 OT SD       0.15E+00    0.3     0.00023668      -515.3687120430 -2.52E-04
    35 OT SD       0.15E+00    0.3     0.00023682      -515.3689640851 -2.52E-04
    36 OT SD       0.15E+00    0.3     0.00023696      -515.3692164241 -2.52E-04
    37 OT SD       0.15E+00    0.3     0.00023710      -515.3694690603 -2.53E-04
    38 OT SD       0.15E+00    0.3     0.00023724      -515.3697219936 -2.53E-04
    39 OT DIIS     0.15E+00    0.3     0.00023738      -515.3699752243 -2.53E-04
    40 OT DIIS     0.15E+00    0.3     0.00232392      -515.2134928947  1.56E-01
    41 OT DIIS     0.15E+00    0.3     0.00030133      -515.3462153543 -1.33E-01
    42 OT SD       0.15E+00    0.3     0.00026568      -515.3528989207 -6.68E-03
    43 OT SD       0.15E+00    0.3     0.00026272      -515.3532144909 -3.16E-04
    44 OT SD       0.15E+00    0.3     0.00026066      -515.3535236270 -3.09E-04
    45 OT DIIS     0.15E+00    0.3     0.00025921      -515.3538283300 -3.05E-04
    46 OT SD       0.15E+00    0.3     0.00020009      -515.3761895759 -2.24E-02
    47 OT SD       0.15E+00    0.3     0.00019725      -515.3763682423 -1.79E-04
    48 OT DIIS     0.15E+00    0.3     0.00019542      -515.3765423624 -1.74E-04
    49 OT DIIS     0.15E+00    0.3     0.00017932      -515.3768657849 -3.23E-04
    50 OT SD       0.15E+00    0.3     0.00017849      -515.3768547085  1.11E-05

  Leaving inner SCF loop after reaching    50 steps.


  Electronic density on regular grids:       -190.9999999827        0.0000000173
  Core density on regular grids:              193.9999999907       -0.0000000093
  Total charge density on r-space grids:        3.0000000079
  Total charge density g-space grids:           3.0000000079

  Overlap energy of the core charge distribution:               0.00000576685054
  Self energy of the core charge distribution:              -1180.77596130715415
  Core Hamiltonian energy:                                    339.97264525392529
  Hartree energy:                                             426.99966937909392
  Exchange-correlation energy:                               -101.57321380118924

  Total energy:                                              -515.37685470847362

  outer SCF iter =    7 RMS gradient =   0.18E-03 energy =       -515.3768547085

  ----------------------------------- OT ---------------------------------------
  Minimizer      : DIIS                : direct inversion
                                         in the iterative subspace
                                         using   7 DIIS vectors
                                         safer DIIS on
  Preconditioner : FULL_KINETIC        : inversion of T + eS
  Precond_solver : DEFAULT
  stepsize       :    0.15000000                  energy_gap     :    0.20000000
  eps_taylor     :   0.10000E-15                  max_taylor     :             4
  ----------------------------------- OT ---------------------------------------

  Step     Update method      Time    Convergence         Total energy    Change
  ------------------------------------------------------------------------------
     1 OT DIIS     0.15E+00    0.6     0.00017761      -515.3769974300 -1.43E-04
     2 OT DIIS     0.15E+00    0.3     0.00017660      -515.3771388783 -1.41E-04
     3 OT DIIS     0.15E+00    0.3     0.00017302      -515.3781912050 -1.05E-03
     4 OT DIIS     0.15E+00    0.3     0.00017166      -515.3794048361 -1.21E-03
     5 OT DIIS     0.15E+00    0.3     0.00017114      -515.3806573327 -1.25E-03
     6 OT SD       0.15E+00    0.3     0.00017120      -515.3808831296 -2.26E-04
     7 OT SD       0.15E+00    0.3     0.00017124      -515.3810149778 -1.32E-04
     8 OT SD       0.15E+00    0.3     0.00017130      -515.3811469005 -1.32E-04
     9 OT SD       0.15E+00    0.3     0.00017136      -515.3812789078 -1.32E-04
    10 OT SD       0.15E+00    0.3     0.00017142      -515.3814110086 -1.32E-04
    11 OT SD       0.15E+00    0.3     0.00017149      -515.3815432103 -1.32E-04
    12 OT SD       0.15E+00    0.3     0.00017156      -515.3816755198 -1.32E-04
    13 OT SD       0.15E+00    0.3     0.00017164      -515.3818079433 -1.32E-04
    14 OT SD       0.15E+00    0.3     0.00017172      -515.3819404866 -1.33E-04
    15 OT SD       0.15E+00    0.3     0.00017180      -515.3820731551 -1.33E-04
    16 OT SD       0.15E+00    0.3     0.00017189      -515.3822059538 -1.33E-04
    17 OT SD       0.15E+00    0.3     0.00017198      -515.3823388875 -1.33E-04
    18 OT SD       0.15E+00    0.3     0.00017207      -515.3824719607 -1.33E-04
    19 OT SD       0.15E+00    0.3     0.00017217      -515.3826051778 -1.33E-04
    20 OT SD       0.15E+00    0.3     0.00017226      -515.3827385430 -1.33E-04
    21 OT SD       0.15E+00    0.3     0.00017236      -515.3828720602 -1.34E-04
    22 OT SD       0.15E+00    0.3     0.00017247      -515.3830057334 -1.34E-04
    23 OT SD       0.15E+00    0.3     0.00017257      -515.3831395663 -1.34E-04
    24 OT SD       0.15E+00    0.3     0.00017268      -515.3832735625 -1.34E-04
    25 OT SD       0.15E+00    0.3     0.00017279      -515.3834077254 -1.34E-04
    26 OT SD       0.15E+00    0.3     0.00017290      -515.3835420586 -1.34E-04
    27 OT SD       0.15E+00    0.3     0.00017301      -515.3836765653 -1.35E-04
    28 OT SD       0.15E+00    0.3     0.00017313      -515.3838112487 -1.35E-04
    29 OT SD       0.15E+00    0.3     0.00017324      -515.3839461121 -1.35E-04
    30 OT SD       0.15E+00    0.3     0.00017336      -515.3840811583 -1.35E-04
    31 OT SD       0.15E+00    0.3     0.00017348      -515.3842163905 -1.35E-04
    32 OT SD       0.15E+00    0.3     0.00017360      -515.3843518114 -1.35E-04
    33 OT SD       0.15E+00    0.3     0.00017373      -515.3844874241 -1.36E-04
    34 OT SD       0.15E+00    0.3     0.00017385      -515.3846232312 -1.36E-04
    35 OT SD       0.15E+00    0.3     0.00017398      -515.3847592354 -1.36E-04
    36 OT SD       0.15E+00    0.3     0.00017411      -515.3848954395 -1.36E-04
    37 OT SD       0.15E+00    0.3     0.00017424      -515.3850318460 -1.36E-04
    38 OT SD       0.15E+00    0.3     0.00017437      -515.3851684575 -1.37E-04
    39 OT SD       0.15E+00    0.3     0.00017451      -515.3853052766 -1.37E-04
    40 OT SD       0.15E+00    0.3     0.00017464      -515.3854423055 -1.37E-04
    41 OT SD       0.15E+00    0.3     0.00017478      -515.3855795469 -1.37E-04
    42 OT SD       0.15E+00    0.3     0.00017491      -515.3857170030 -1.37E-04
    43 OT SD       0.15E+00    0.3     0.00017505      -515.3858546762 -1.38E-04
    44 OT SD       0.15E+00    0.3     0.00017519      -515.3859925687 -1.38E-04
    45 OT SD       0.15E+00    0.3     0.00017534      -515.3861306829 -1.38E-04
    46 OT SD       0.15E+00    0.3     0.00017548      -515.3862690209 -1.38E-04
    47 OT SD       0.15E+00    0.3     0.00017562      -515.3864075849 -1.39E-04
    48 OT SD       0.15E+00    0.3     0.00017577      -515.3865463771 -1.39E-04
    49 OT SD       0.15E+00    0.3     0.00017591      -515.3866853996 -1.39E-04
    50 OT SD       0.15E+00    0.3     0.00017606      -515.3868246545 -1.39E-04

  Leaving inner SCF loop after reaching    50 steps.


  Electronic density on regular grids:       -190.9999999666        0.0000000334
  Core density on regular grids:              193.9999999907       -0.0000000093
  Total charge density on r-space grids:        3.0000000241
  Total charge density g-space grids:           3.0000000241

  Overlap energy of the core charge distribution:               0.00000576685054
  Self energy of the core charge distribution:              -1180.77596130715415
  Core Hamiltonian energy:                                    340.03646497601505
  Hartree energy:                                             426.94672502629101
  Exchange-correlation energy:                               -101.59405911649560

  Total energy:                                              -515.38682465449313

  outer SCF iter =    8 RMS gradient =   0.18E-03 energy =       -515.3868246545

  ----------------------------------- OT ---------------------------------------
  Minimizer      : DIIS                : direct inversion
                                         in the iterative subspace
                                         using   7 DIIS vectors
                                         safer DIIS on
  Preconditioner : FULL_KINETIC        : inversion of T + eS
  Precond_solver : DEFAULT
  stepsize       :    0.15000000                  energy_gap     :    0.20000000
  eps_taylor     :   0.10000E-15                  max_taylor     :             4
  ----------------------------------- OT ---------------------------------------

  Step     Update method      Time    Convergence         Total energy    Change
  ------------------------------------------------------------------------------
     1 OT DIIS     0.15E+00    0.6     0.00017652      -515.3869641438 -1.39E-04
     2 OT SD       0.15E+00    0.3     0.00017663      -515.3871043417 -1.40E-04
     3 OT SD       0.15E+00    0.3     0.00017676      -515.3872447278 -1.40E-04
     4 OT SD       0.15E+00    0.3     0.00017688      -515.3873853100 -1.41E-04
     5 OT SD       0.15E+00    0.3     0.00017701      -515.3875260948 -1.41E-04
     6 OT SD       0.15E+00    0.3     0.00017715      -515.3876670878 -1.41E-04
     7 OT SD       0.15E+00    0.3     0.00017728      -515.3878082938 -1.41E-04
     8 OT SD       0.15E+00    0.3     0.00017742      -515.3879497173 -1.41E-04
     9 OT SD       0.15E+00    0.3     0.00017756      -515.3880913623 -1.42E-04
    10 OT SD       0.15E+00    0.3     0.00017770      -515.3882332324 -1.42E-04
    11 OT SD       0.15E+00    0.3     0.00017785      -515.3883753311 -1.42E-04
    12 OT SD       0.15E+00    0.3     0.00017799      -515.3885176618 -1.42E-04
    13 OT SD       0.15E+00    0.3     0.00017814      -515.3886602275 -1.43E-04
    14 OT SD       0.15E+00    0.3     0.00017829      -515.3888030312 -1.43E-04
    15 OT SD       0.15E+00    0.3     0.00017844      -515.3889460757 -1.43E-04
    16 OT SD       0.15E+00    0.3     0.00017860      -515.3890893637 -1.43E-04
    17 OT SD       0.15E+00    0.3     0.00017875      -515.3892328979 -1.44E-04
    18 OT SD       0.15E+00    0.3     0.00017891      -515.3893766808 -1.44E-04
    19 OT SD       0.15E+00    0.3     0.00017906      -515.3895207150 -1.44E-04
    20 OT SD       0.15E+00    0.3     0.00017922      -515.3896650027 -1.44E-04
    21 OT SD       0.15E+00    0.3     0.00017938      -515.3898095463 -1.45E-04
    22 OT SD       0.15E+00    0.3     0.00017954      -515.3899543482 -1.45E-04
    23 OT SD       0.15E+00    0.3     0.00017970      -515.3900994104 -1.45E-04
    24 OT SD       0.15E+00    0.3     0.00017987      -515.3902447352 -1.45E-04
    25 OT SD       0.15E+00    0.3     0.00018003      -515.3903903247 -1.46E-04
    26 OT SD       0.15E+00    0.3     0.00018020      -515.3905361809 -1.46E-04
    27 OT SD       0.15E+00    0.3     0.00018036      -515.3906823058 -1.46E-04
    28 OT SD       0.15E+00    0.3     0.00018053      -515.3908287015 -1.46E-04
    29 OT SD       0.15E+00    0.3     0.00018070      -515.3909753698 -1.47E-04
    30 OT SD       0.15E+00    0.3     0.00018087      -515.3911223126 -1.47E-04
    31 OT SD       0.15E+00    0.3     0.00018104      -515.3912695318 -1.47E-04
    32 OT SD       0.15E+00    0.3     0.00018121      -515.3914170291 -1.47E-04
    33 OT SD       0.15E+00    0.3     0.00018139      -515.3915648065 -1.48E-04
    34 OT SD       0.15E+00    0.3     0.00018156      -515.3917128655 -1.48E-04
    35 OT SD       0.15E+00    0.3     0.00018173      -515.3918612080 -1.48E-04
    36 OT SD       0.15E+00    0.3     0.00018191      -515.3920098356 -1.49E-04
    37 OT SD       0.15E+00    0.3     0.00018208      -515.3921587499 -1.49E-04
    38 OT SD       0.15E+00    0.3     0.00018226      -515.3923079527 -1.49E-04
    39 OT SD       0.15E+00    0.3     0.00018244      -515.3924574454 -1.49E-04
    40 OT SD       0.15E+00    0.3     0.00018262      -515.3926072297 -1.50E-04
    41 OT SD       0.15E+00    0.3     0.00018280      -515.3927573071 -1.50E-04
    42 OT SD       0.15E+00    0.3     0.00018297      -515.3929076790 -1.50E-04
    43 OT SD       0.15E+00    0.3     0.00018316      -515.3930583471 -1.51E-04
    44 OT SD       0.15E+00    0.3     0.00018334      -515.3932093127 -1.51E-04
    45 OT SD       0.15E+00    0.3     0.00018352      -515.3933605774 -1.51E-04
    46 OT SD       0.15E+00    0.3     0.00018370      -515.3935121424 -1.52E-04
    47 OT SD       0.15E+00    0.3     0.00018388      -515.3936640093 -1.52E-04
    48 OT SD       0.15E+00    0.3     0.00018407      -515.3938161793 -1.52E-04
    49 OT SD       0.15E+00    0.3     0.00018425      -515.3939686539 -1.52E-04
    50 OT SD       0.15E+00    0.3     0.00018444      -515.3941214343 -1.53E-04

  Leaving inner SCF loop after reaching    50 steps.


  Electronic density on regular grids:       -190.9999999666        0.0000000334
  Core density on regular grids:              193.9999999907       -0.0000000093
  Total charge density on r-space grids:        3.0000000241
  Total charge density g-space grids:           3.0000000241

  Overlap energy of the core charge distribution:               0.00000576685054
  Self energy of the core charge distribution:              -1180.77596130715415
  Core Hamiltonian energy:                                    340.04735309350031
  Hartree energy:                                             426.93903122980873
  Exchange-correlation energy:                               -101.60455021729499

  Total energy:                                              -515.39412143428956

  outer SCF iter =    9 RMS gradient =   0.18E-03 energy =       -515.3941214343

  ----------------------------------- OT ---------------------------------------
  Minimizer      : DIIS                : direct inversion
                                         in the iterative subspace
                                         using   7 DIIS vectors
                                         safer DIIS on
  Preconditioner : FULL_KINETIC        : inversion of T + eS
  Precond_solver : DEFAULT
  stepsize       :    0.15000000                  energy_gap     :    0.20000000
  eps_taylor     :   0.10000E-15                  max_taylor     :             4
  ----------------------------------- OT ---------------------------------------

  Step     Update method      Time    Convergence         Total energy    Change
  ------------------------------------------------------------------------------
     1 OT DIIS     0.15E+00    0.6     0.00018522      -515.3942745219 -1.53E-04
     2 OT SD       0.15E+00    0.3     0.00018538      -515.3944288949 -1.54E-04
     3 OT SD       0.15E+00    0.3     0.00018555      -515.3945835437 -1.55E-04
     4 OT SD       0.15E+00    0.3     0.00018572      -515.3947384735 -1.55E-04
     5 OT SD       0.15E+00    0.3     0.00018589      -515.3948936885 -1.55E-04
     6 OT SD       0.15E+00    0.3     0.00018606      -515.3950491925 -1.56E-04
     7 OT SD       0.15E+00    0.3     0.00018624      -515.3952049885 -1.56E-04
     8 OT SD       0.15E+00    0.3     0.00018642      -515.3953610795 -1.56E-04
     9 OT SD       0.15E+00    0.3     0.00018660      -515.3955174680 -1.56E-04
    10 OT SD       0.15E+00    0.3     0.00018678      -515.3956741564 -1.57E-04
    11 OT SD       0.15E+00    0.3     0.00018696      -515.3958311470 -1.57E-04
    12 OT SD       0.15E+00    0.3     0.00018714      -515.3959884419 -1.57E-04
    13 OT SD       0.15E+00    0.3     0.00018732      -515.3961460430 -1.58E-04
    14 OT SD       0.15E+00    0.3     0.00018750      -515.3963039522 -1.58E-04
    15 OT SD       0.15E+00    0.3     0.00018769      -515.3964621713 -1.58E-04
    16 OT SD       0.15E+00    0.3     0.00018787      -515.3966207020 -1.59E-04
    17 OT SD       0.15E+00    0.3     0.00018806      -515.3967795459 -1.59E-04
    18 OT SD       0.15E+00    0.3     0.00018825      -515.3969387047 -1.59E-04
    19 OT SD       0.15E+00    0.3     0.00018843      -515.3970981797 -1.59E-04
    20 OT SD       0.15E+00    0.3     0.00018862      -515.3972579725 -1.60E-04
    21 OT SD       0.15E+00    0.3     0.00018881      -515.3974180845 -1.60E-04
    22 OT SD       0.15E+00    0.3     0.00018900      -515.3975785171 -1.60E-04
    23 OT SD       0.15E+00    0.3     0.00018919      -515.3977392714 -1.61E-04
    24 OT SD       0.15E+00    0.3     0.00018938      -515.3979003489 -1.61E-04
    25 OT SD       0.15E+00    0.3     0.00018957      -515.3980617507 -1.61E-04
    26 OT SD       0.15E+00    0.3     0.00018976      -515.3982234780 -1.62E-04
    27 OT SD       0.15E+00    0.3     0.00018995      -515.3983855319 -1.62E-04
    28 OT SD       0.15E+00    0.3     0.00019015      -515.3985479136 -1.62E-04
    29 OT SD       0.15E+00    0.3     0.00019034      -515.3987106241 -1.63E-04
    30 OT SD       0.15E+00    0.3     0.00019053      -515.3988736645 -1.63E-04
    31 OT SD       0.15E+00    0.3     0.00019072      -515.3990370356 -1.63E-04
    32 OT SD       0.15E+00    0.3     0.00019092      -515.3992007386 -1.64E-04
    33 OT SD       0.15E+00    0.3     0.00019111      -515.3993647743 -1.64E-04
    34 OT SD       0.15E+00    0.3     0.00019131      -515.3995291436 -1.64E-04
    35 OT SD       0.15E+00    0.3     0.00019150      -515.3996938474 -1.65E-04
    36 OT SD       0.15E+00    0.3     0.00019170      -515.3998588864 -1.65E-04
    37 OT SD       0.15E+00    0.3     0.00019189      -515.4000242616 -1.65E-04
    38 OT SD       0.15E+00    0.3     0.00019209      -515.4001899737 -1.66E-04
    39 OT SD       0.15E+00    0.3     0.00019228      -515.4003560234 -1.66E-04
    40 OT SD       0.15E+00    0.3     0.00019248      -515.4005224114 -1.66E-04
    41 OT SD       0.15E+00    0.3     0.00019267      -515.4006891384 -1.67E-04
    42 OT SD       0.15E+00    0.3     0.00019287      -515.4008562050 -1.67E-04
    43 OT SD       0.15E+00    0.3     0.00019307      -515.4010236119 -1.67E-04
    44 OT SD       0.15E+00    0.3     0.00019326      -515.4011913597 -1.68E-04
    45 OT SD       0.15E+00    0.3     0.00019346      -515.4013594489 -1.68E-04
    46 OT SD       0.15E+00    0.3     0.00019366      -515.4015278801 -1.68E-04
    47 OT SD       0.15E+00    0.3     0.00019385      -515.4016966538 -1.69E-04
    48 OT SD       0.15E+00    0.3     0.00019405      -515.4018657704 -1.69E-04
    49 OT SD       0.15E+00    0.3     0.00019425      -515.4020352305 -1.69E-04
    50 OT SD       0.15E+00    0.3     0.00019444      -515.4022050344 -1.70E-04

  Leaving inner SCF loop after reaching    50 steps.


  Electronic density on regular grids:       -190.9999999666        0.0000000334
  Core density on regular grids:              193.9999999907       -0.0000000093
  Total charge density on r-space grids:        3.0000000241
  Total charge density g-space grids:           3.0000000241

  Overlap energy of the core charge distribution:               0.00000576685054
  Self energy of the core charge distribution:              -1180.77596130715415
  Core Hamiltonian energy:                                    340.05527397646074
  Hartree energy:                                             426.93438236565436
  Exchange-correlation energy:                               -101.61590583626094

  Total energy:                                              -515.40220503444948

  outer SCF iter =   10 RMS gradient =   0.19E-03 energy =       -515.4022050344

  ----------------------------------- OT ---------------------------------------
  Minimizer      : DIIS                : direct inversion
                                         in the iterative subspace
                                         using   7 DIIS vectors
                                         safer DIIS on
  Preconditioner : FULL_KINETIC        : inversion of T + eS
  Precond_solver : DEFAULT
  stepsize       :    0.15000000                  energy_gap     :    0.20000000
  eps_taylor     :   0.10000E-15                  max_taylor     :             4
  ----------------------------------- OT ---------------------------------------

  Step     Update method      Time    Convergence         Total energy    Change
  ------------------------------------------------------------------------------
     1 OT DIIS     0.15E+00    0.6     0.00019580      -515.4023751826 -1.70E-04
     2 OT SD       0.15E+00    0.3     0.00019597      -515.4025476984 -1.73E-04
     3 OT SD       0.15E+00    0.3     0.00019614      -515.4027205164 -1.73E-04
     4 OT SD       0.15E+00    0.3     0.00019632      -515.4028936422 -1.73E-04
     5 OT SD       0.15E+00    0.3     0.00019650      -515.4030670804 -1.73E-04
     6 OT SD       0.15E+00    0.3     0.00019668      -515.4032408345 -1.74E-04
     7 OT SD       0.15E+00    0.3     0.00019686      -515.4034149074 -1.74E-04
     8 OT SD       0.15E+00    0.3     0.00019704      -515.4035893017 -1.74E-04
     9 OT SD       0.15E+00    0.3     0.00019722      -515.4037640195 -1.75E-04
    10 OT SD       0.15E+00    0.3     0.00019741      -515.4039390625 -1.75E-04
    11 OT SD       0.15E+00    0.3     0.00019759      -515.4041144325 -1.75E-04
    12 OT SD       0.15E+00    0.3     0.00019778      -515.4042901309 -1.76E-04
    13 OT SD       0.15E+00    0.3     0.00019796      -515.4044661589 -1.76E-04
    14 OT SD       0.15E+00    0.3     0.00019815      -515.4046425176 -1.76E-04
    15 OT SD       0.15E+00    0.3     0.00019834      -515.4048192081 -1.77E-04
    16 OT SD       0.15E+00    0.3     0.00019852      -515.4049962313 -1.77E-04
    17 OT SD       0.15E+00    0.3     0.00019871      -515.4051735879 -1.77E-04
    18 OT SD       0.15E+00    0.3     0.00019890      -515.4053512788 -1.78E-04
    19 OT SD       0.15E+00    0.3     0.00019908      -515.4055293045 -1.78E-04
    20 OT SD       0.15E+00    0.3     0.00019927      -515.4057076657 -1.78E-04
    21 OT SD       0.15E+00    0.3     0.00019946      -515.4058863627 -1.79E-04
    22 OT SD       0.15E+00    0.3     0.00019965      -515.4060653961 -1.79E-04
    23 OT SD       0.15E+00    0.3     0.00019983      -515.4062447662 -1.79E-04
    24 OT SD       0.15E+00    0.3     0.00020002      -515.4064244733 -1.80E-04
    25 OT SD       0.15E+00    0.3     0.00020021      -515.4066045176 -1.80E-04
    26 OT SD       0.15E+00    0.3     0.00020040      -515.4067848994 -1.80E-04
    27 OT SD       0.15E+00    0.3     0.00020058      -515.4069656189 -1.81E-04
    28 OT SD       0.15E+00    0.3     0.00020077      -515.4071466760 -1.81E-04
    29 OT SD       0.15E+00    0.3     0.00020096      -515.4073280708 -1.81E-04
    30 OT SD       0.15E+00    0.3     0.00020114      -515.4075098033 -1.82E-04
    31 OT SD       0.15E+00    0.3     0.00020133      -515.4076918735 -1.82E-04
    32 OT SD       0.15E+00    0.3     0.00020152      -515.4078742812 -1.82E-04
    33 OT SD       0.15E+00    0.3     0.00020170      -515.4080570264 -1.83E-04
    34 OT SD       0.15E+00    0.3     0.00020189      -515.4082401087 -1.83E-04
    35 OT SD       0.15E+00    0.3     0.00020207      -515.4084235279 -1.83E-04
    36 OT SD       0.15E+00    0.3     0.00020226      -515.4086072839 -1.84E-04
    37 OT DIIS     0.15E+00    0.3     0.00020244      -515.4087913761 -1.84E-04
    38 OT SD       0.15E+00    0.3     0.00036998      -515.4289432073 -2.02E-02
    39 OT SD       0.15E+00    0.3     0.00034524      -515.4295371756 -5.94E-04
    40 OT SD       0.15E+00    0.3     0.00032695      -515.4300582632 -5.21E-04
    41 OT SD       0.15E+00    0.3     0.00031332      -515.4305284635 -4.70E-04
    42 OT SD       0.15E+00    0.3     0.00030308      -515.4309623906 -4.34E-04
    43 OT SD       0.15E+00    0.3     0.00029527      -515.4313699290 -4.08E-04
    44 OT DIIS     0.15E+00    0.3     0.00028925      -515.4317578718 -3.88E-04
    45 OT DIIS     0.15E+00    0.3     0.00022643      -515.4569532085 -2.52E-02
    46 OT DIIS     0.15E+00    0.3     0.00021547      -515.4647849498 -7.83E-03
    47 OT DIIS     0.15E+00    0.3     0.00020878      -515.4679149630 -3.13E-03
    48 OT DIIS     0.15E+00    0.3     0.00018449      -515.4772500976 -9.34E-03
    49 OT DIIS     0.15E+00    0.3     0.00017645      -515.4790867245 -1.84E-03
    50 OT SD       0.15E+00    0.3     0.00015363      -515.4851802502 -6.09E-03

  Leaving inner SCF loop after reaching    50 steps.


  Electronic density on regular grids:       -190.9999999095        0.0000000905
  Core density on regular grids:              193.9999999907       -0.0000000093
  Total charge density on r-space grids:        3.0000000812
  Total charge density g-space grids:           3.0000000812

  Overlap energy of the core charge distribution:               0.00000576685054
  Self energy of the core charge distribution:              -1180.77596130715415
  Core Hamiltonian energy:                                    339.92331543452173
  Hartree energy:                                             427.07940076339059
  Exchange-correlation energy:                               -101.71194090784094

  Total energy:                                              -515.48518025023213

  outer SCF iter =   11 RMS gradient =   0.15E-03 energy =       -515.4851802502

  ----------------------------------- OT ---------------------------------------
  Minimizer      : DIIS                : direct inversion
                                         in the iterative subspace
                                         using   7 DIIS vectors
                                         safer DIIS on
  Preconditioner : FULL_KINETIC        : inversion of T + eS
  Precond_solver : DEFAULT
  stepsize       :    0.15000000                  energy_gap     :    0.20000000
  eps_taylor     :   0.10000E-15                  max_taylor     :             4
  ----------------------------------- OT ---------------------------------------

  Step     Update method      Time    Convergence         Total energy    Change
  ------------------------------------------------------------------------------
     1 OT DIIS     0.15E+00    0.6     0.00017795      -515.4852851522 -1.05E-04
     2 OT DIIS     0.15E+00    0.3     0.00017551      -515.4854265745 -1.41E-04
     3 OT DIIS     0.15E+00    0.3     0.00016458      -515.4865571524 -1.13E-03
     4 OT DIIS     0.15E+00    0.3     0.00015610      -515.4881812593 -1.62E-03
     5 OT DIIS     0.15E+00    0.3     0.00014830      -515.4901832260 -2.00E-03
     6 OT DIIS     0.15E+00    0.3     0.00014391      -515.4913484883 -1.17E-03
     7 OT DIIS     0.15E+00    0.3     0.00014160      -515.4924672406 -1.12E-03
     8 OT DIIS     0.15E+00    0.3     0.00013512      -515.4954868466 -3.02E-03
     9 OT DIIS     0.15E+00    0.3     0.00013499      -515.4956535339 -1.67E-04
    10 OT SD       0.15E+00    0.3     0.00013440      -515.4958658165 -2.12E-04
    11 OT DIIS     0.15E+00    0.3     0.00013390      -515.4959469012 -8.11E-05
    12 OT DIIS     0.15E+00    0.3     0.00013181      -515.4975488916 -1.60E-03
    13 OT DIIS     0.15E+00    0.3     0.00013179      -515.4975531921 -4.30E-06
    14 OT DIIS     0.15E+00    0.3     0.00013152      -515.4977675486 -2.14E-04
    15 OT DIIS     0.15E+00    0.3     0.00013018      -515.4992784705 -1.51E-03
    16 OT DIIS     0.15E+00    0.3     0.00012992      -515.4997298210 -4.51E-04
    17 OT DIIS     0.15E+00    0.3     0.00012959      -515.5001094502 -3.80E-04
    18 OT DIIS     0.15E+00    0.3     0.00012759      -515.5025801343 -2.47E-03
    19 OT DIIS     0.15E+00    0.3     0.00012708      -515.5032088785 -6.29E-04
    20 OT DIIS     0.15E+00    0.3     0.00012612      -515.5045593056 -1.35E-03
    21 OT DIIS     0.15E+00    0.3     0.00012592      -515.5048575609 -2.98E-04
    22 OT DIIS     0.15E+00    0.3     0.00012545      -515.5057924400 -9.35E-04
    23 OT DIIS     0.15E+00    0.3     0.00012418      -515.5074965893 -1.70E-03
    24 OT DIIS     0.15E+00    0.3     0.00012477      -515.5083374385 -8.41E-04
    25 OT DIIS     0.15E+00    0.3     0.00012254      -515.5092266811 -8.89E-04
    26 OT DIIS     0.15E+00    0.3     0.00012461      -515.5099846412 -7.58E-04
    27 OT DIIS     0.15E+00    0.3     0.00012238      -515.5100050422 -2.04E-05
    28 OT DIIS     0.15E+00    0.3     0.00012090      -515.5108126817 -8.08E-04
    29 OT DIIS     0.15E+00    0.3     0.00011602      -515.5145960640 -3.78E-03
    30 OT DIIS     0.15E+00    0.3     0.00011301      -515.5155493353 -9.53E-04
    31 OT DIIS     0.15E+00    0.3     0.00011122      -515.5164840164 -9.35E-04
    32 OT DIIS     0.15E+00    0.3     0.00010631      -515.5185654826 -2.08E-03
    33 OT DIIS     0.15E+00    0.3     0.00010356      -515.5210738693 -2.51E-03
    34 OT DIIS     0.15E+00    0.3     0.00009943      -515.5213980021 -3.24E-04
    35 OT DIIS     0.15E+00    0.3     0.00009385      -515.5228093098 -1.41E-03
    36 OT DIIS     0.15E+00    0.3     0.00008642      -515.5242139866 -1.40E-03
    37 OT SD       0.15E+00    0.3     0.00008002      -515.5254619771 -1.25E-03
    38 OT DIIS     0.15E+00    0.3     0.00007839      -515.5254904654 -2.85E-05
    39 OT SD       0.15E+00    0.3     0.00007124      -515.5264704057 -9.80E-04
    40 OT DIIS     0.15E+00    0.3     0.00007044      -515.5264931025 -2.27E-05
    41 OT DIIS     0.15E+00    0.3     0.00006996      -515.5277852804 -1.29E-03
    42 OT DIIS     0.15E+00    0.3     0.00005878      -515.5280963405 -3.11E-04
    43 OT DIIS     0.15E+00    0.3     0.00005986      -515.5284528891 -3.57E-04
    44 OT DIIS     0.15E+00    0.3     0.00005144      -515.5286595979 -2.07E-04
    45 OT DIIS     0.15E+00    0.3     0.00005506      -515.5286652686 -5.67E-06
    46 OT DIIS     0.15E+00    0.3     0.00004791      -515.5288163044 -1.51E-04

  *** SCF run converged in    46 steps ***


  Electronic density on regular grids:       -190.9999999666        0.0000000334
  Core density on regular grids:              193.9999999907       -0.0000000093
  Total charge density on r-space grids:        3.0000000241
  Total charge density g-space grids:           3.0000000241

  Overlap energy of the core charge distribution:               0.00000576685054
  Self energy of the core charge distribution:              -1180.77596130715415
  Core Hamiltonian energy:                                    340.00033947074530
  Hartree energy:                                             427.00642959189457
  Exchange-correlation energy:                               -101.75962982676856

  Total energy:                                              -515.52881630443221

  outer SCF iter =   12 RMS gradient =   0.48E-04 energy =       -515.5288163044
  outer SCF loop converged in  12 iterations or  596 steps


  Integrated absolute spin density  :                              10.2967957365
  Ideal and single determinant S**2 :                    0.750000       5.040488

 ENERGY| Total FORCE_EVAL ( QS ) energy (a.u.):             -515.529052482180987


 --------  Informations at step =     0 ------------
  Optimization Method        =                 BFGS
  Total Energy               =      -515.5290524822
  Used time                  =              178.740
 ---------------------------------------------------

 --------------------------
 OPTIMIZATION STEP:      1
 --------------------------

  Step is scaled; Scaling factor =  0.88649

 Spin 1

 Number of electrons:                                                         96
 Number of occupied orbitals:                                                 96
 Number of molecular orbitals:                                                96

 Spin 2

 Number of electrons:                                                         95
 Number of occupied orbitals:                                                 95
 Number of molecular orbitals:                                                95

 Number of orbital functions:                                                157
 Number of independent orbital functions:                                    157

 Extrapolation method: ASPC


 SCF WAVEFUNCTION OPTIMIZATION

  ----------------------------------- OT ---------------------------------------
  Minimizer      : DIIS                : direct inversion
                                         in the iterative subspace
                                         using   7 DIIS vectors
                                         safer DIIS on
  Preconditioner : FULL_KINETIC        : inversion of T + eS
  Precond_solver : DEFAULT
  stepsize       :    0.15000000                  energy_gap     :    0.20000000
  eps_taylor     :   0.10000E-15                  max_taylor     :             4
  ----------------------------------- OT ---------------------------------------

[...]
  Optimization Method        =                 BFGS
  Total Energy               =      -572.3455815130
  Real energy change         =        -0.3819643275
  Predicted change in energy =        -0.5175667115
  Scaling factor             =         0.9193134168
  Step size                  =         0.3893006518
  Trust radius               =         0.4724315332
  Decrease in energy         =                  YES
  Used time                  =               13.954

  Convergence check :
  Max. step size             =         0.3893006518
  Conv. limit for step size  =         0.5000000000
  Convergence in step size   =                  YES
  RMS step size              =         0.1027220702
  Conv. limit for RMS step   =         0.0500000000
  Convergence in RMS step    =                   NO
  Max. gradient              =         0.4224357030
  Conv. limit for gradients  =         0.5000000000
  Conv. in gradients         =                  YES
  RMS gradient               =         0.1067039983
  Conv. limit for RMS grad.  =         0.0500000000
  Conv. for gradients        =                   NO
 ---------------------------------------------------

 *** MAXIMUM NUMBER OF OPTIMIZATION STEPS REACHED ***
 ***        EXITING GEOMETRY OPTIMIZATION         ***

 -------------------------------------------------------------------------------
 -                                                                             -
 -                                DBCSR STATISTICS                             -
 -                                                                             -
 -------------------------------------------------------------------------------
 COUNTER                                    TOTAL       BLAS       SMM       ACC
 flops    1 x   31 x   31                15491320       0.0%    100.0%      0.0%
 flops    1 x   32 x   32                82534400       0.0%    100.0%      0.0%
 flops    4 x   31 x   31                92947920       0.0%    100.0%      0.0%
 flops    1 x    1 x   31               131223248       0.0%    100.0%      0.0%
 flops   17 x    1 x   31               154289790       0.0%    100.0%      0.0%
 flops    1 x   17 x   31               161753164       0.0%    100.0%      0.0%
 flops   17 x   17 x   31               281975566       0.0%    100.0%      0.0%
 flops    4 x   32 x   32               495206400       0.0%    100.0%      0.0%
 flops    1 x   31 x    1               504221448       0.0%    100.0%      0.0%
 flops    1 x   31 x   17               656055976       0.0%    100.0%      0.0%
 flops   17 x   31 x    1               656055976       0.0%    100.0%      0.0%
 flops    1 x    1 x   32               677281280       0.0%    100.0%      0.0%
 flops    1 x    4 x   31               782866064       0.0%    100.0%      0.0%
 flops   17 x    1 x   32               796334400       0.0%    100.0%      0.0%
 flops    4 x    1 x   31               799668312       0.0%    100.0%      0.0%
 flops    1 x   17 x   32               834855040       0.0%    100.0%      0.0%
 flops   17 x   31 x   17               867374544       0.0%    100.0%      0.0%
 flops   17 x    4 x   31               954405432       0.0%    100.0%      0.0%
 flops    4 x   17 x   31               973672552       0.0%    100.0%      0.0%
 flops   17 x   17 x   32              1455357760       0.0%    100.0%      0.0%
 flops   31 x   31 x   17              1991055538       0.0%    100.0%      0.0%
 flops   14 x   31 x   17              2322299280       0.0%    100.0%      0.0%
 flops   17 x   31 x   14              2322299280       0.0%    100.0%      0.0%
 flops   17 x   31 x   31              2492111328       0.0%    100.0%      0.0%
 flops    1 x   32 x    1              2593007616       0.0%    100.0%      0.0%
 flops    1 x   31 x    4              3284903840       0.0%    100.0%      0.0%
 flops    4 x   31 x    1              3284903840       0.0%    100.0%      0.0%
 flops   17 x   32 x    1              3373669312       0.0%    100.0%      0.0%
 flops    1 x   32 x   17              3373669312       0.0%    100.0%      0.0%
 flops    4 x   31 x   17              4002434304       0.0%    100.0%      0.0%
 flops   17 x   31 x    4              4002434304       0.0%    100.0%      0.0%
 flops    1 x    4 x   32              4040599040       0.0%    100.0%      0.0%
 flops   31 x   32 x   17              4110566272       0.0%    100.0%      0.0%
 flops   32 x   31 x   17              4110566272       0.0%    100.0%      0.0%
 flops    4 x    1 x   32              4127320320       0.0%    100.0%      0.0%
 flops   17 x   32 x   17              4465618752       0.0%    100.0%      0.0%
 flops   17 x    4 x   32              4925963520       0.0%    100.0%      0.0%
 flops    4 x   17 x   32              5025406720       0.0%    100.0%      0.0%
 flops   17 x   32 x   31              5117819264       0.0%    100.0%      0.0%
 flops   17 x   31 x   32              5117819264       0.0%    100.0%      0.0%
 flops    4 x    4 x   31              5836412160       0.0%    100.0%      0.0%
 flops   31 x   31 x   31              7518354670       0.0%    100.0%      0.0%
 flops   17 x   32 x   14             11986060800       0.0%    100.0%      0.0%
 flops   14 x   32 x   17             11986060800       0.0%    100.0%      0.0%
 flops   31 x   31 x   32             15521764480       0.0%    100.0%      0.0%
 flops   31 x   32 x   31             15521764480       0.0%    100.0%      0.0%
 flops   32 x   31 x   31             15521764480       0.0%    100.0%      0.0%
 flops   31 x   31 x   14             16396927960       0.0%    100.0%      0.0%
 flops    1 x   32 x    4             16892636672       0.0%    100.0%      0.0%
 flops    4 x   32 x    1             16892636672       0.0%    100.0%      0.0%
 flops   14 x   31 x   14             19124817600       0.0%    100.0%      0.0%
 flops   14 x   31 x   31             20414830520       0.0%    100.0%      0.0%
 flops   17 x   32 x    4             20581830912       0.0%    100.0%      0.0%
 flops    4 x   32 x   17             20581830912       0.0%    100.0%      0.0%
 flops    4 x   31 x    4             23258191936       0.0%    100.0%      0.0%
 flops   32 x   32 x   17             27580573696       0.0%    100.0%      0.0%
 flops    4 x    4 x   32             30123417600       0.0%    100.0%      0.0%
 flops   32 x   32 x   31             32044933120       0.0%    100.0%      0.0%
 flops   31 x   32 x   32             32044933120       0.0%    100.0%      0.0%
 flops   32 x   31 x   32             32044933120       0.0%    100.0%      0.0%
 flops   31 x   32 x   14             33851722240       0.0%    100.0%      0.0%
 flops   32 x   31 x   14             33851722240       0.0%    100.0%      0.0%
 flops   17 x   32 x   32             34409070592       0.0%    100.0%      0.0%
 flops   14 x   31 x   32             42146746880       0.0%    100.0%      0.0%
 flops   14 x   32 x   31             42146746880       0.0%    100.0%      0.0%
 flops   14 x   32 x   14             98708736000       0.0%    100.0%      0.0%
 flops    4 x   32 x    4            119603623936       0.0%    100.0%      0.0%
 flops   32 x   32 x   14            227134136320       0.0%    100.0%      0.0%
 flops   14 x   32 x   32            282791075840       0.0%    100.0%      0.0%
 flops   32 x   32 x   32            295595868160       0.0%    100.0%      0.0%
 flops total                         1.687572E+12       0.0%    100.0%      0.0%
 flops max/rank                    122.931692E+09       0.0%    100.0%      0.0%
 matmuls inhomo. stacks                         0       0.0%      0.0%      0.0%
 matmuls total                          502827699       0.0%    100.0%      0.0%
 number of processed stacks             165405729       0.0%    100.0%      0.0%
 average stack size                                     0.0       3.0       0.0
 marketing flops                     1.836762E+12
 -------------------------------------------------------------------------------
 # multiplications                         659163
 max memory usage/rank             109.789184E+06
 # max total images/rank                        1
 # MPI messages exchanged              1595174460
 # MPI messages filtered                        0
 MPI messages size (elements):
  total size                       167.151796E+09
  min size                           0.000000E+00
  max size                           1.024000E+03
  average size                     104.785904E+00
 MPI breakdown and total messages size (bytes):
             size <=      128          1235104560                        0
       128 < size <=     8192           360069900            1316638786160
      8192 < size <=    32768                   0                        0
     32768 < size <=   131072                   0                        0
    131072 < size <=  4194304                   0                        0
   4194304 < size <= 16777216                   0                        0
  16777216 < size                               0                        0
 -------------------------------------------------------------------------------

 MEMORY| Estimated peak process memory [MiB]                                 105

 -------------------------------------------------------------------------------
 -                                                                             -
 -                         MESSAGE PASSING PERFORMANCE                         -
 -                                                                             -
 -------------------------------------------------------------------------------

 ROUTINE             CALLS  TOT TIME [s]  AVE VOLUME [Bytes]  PERFORMANCE [MB/s]
 MP_Group                3         0.000
 MP_Bcast          1175752         3.245               2141.              775.54
 MP_Allreduce      4601716       242.566                 96.                1.83
 MP_Sync             22879         0.178
 MP_Alltoall       2672351       978.687             158912.              433.92
 MP_ISendRecv      7457280       347.323              30720.              659.58
 MP_Wait          77886612      1072.628
 MP_comm_split       22877         5.043
 MP_ISend         30438506        35.444              10108.             8680.49
 MP_IRecv         30438506         6.618               9888.            45477.89
 MP_Recv             19180         0.185              11912.             1234.62
 MP_Memory        26096292         4.744
 -------------------------------------------------------------------------------


 -------------------------------------------------------------------------------
 -                                                                             -
 -                           R E F E R E N C E S                               -
 -                                                                             -
 -------------------------------------------------------------------------------
 
 CP2K version 4.1, the CP2K developers group (2016).
 CP2K is freely available from https://www.cp2k.org/ .

 Schuett, Ole; Messmer, Peter; Hutter, Juerg; VandeVondele, Joost. 
 Electronic Structure Calculations on Graphics Processing Units, John Wiley & Sons, Ltd, 173-190 (2016). 
 GPU-Accelerated Sparse Matrix-Matrix Multiplication for Linear Scaling Density Functional Theory.
 http://dx.doi.org/10.1002/9781118670712.ch8


 Borstnik, U; VandeVondele, J; Weber, V; Hutter, J. 
 PARALLEL COMPUTING, 40 (5-6), 47-58 (2014). 
 Sparse matrix multiplication: The distributed block-compressed sparse
 row library.
 http://dx.doi.org/10.1016/j.parco.2014.03.012


 Hutter, J; Iannuzzi, M; Schiffmann, F; VandeVondele, J. 
 WILEY INTERDISCIPLINARY REVIEWS-COMPUTATIONAL MOLECULAR SCIENCE, 4 (1), 15-25 (2014). 
 CP2K: atomistic simulations of condensed matter systems.
 http://dx.doi.org/10.1002/wcms.1159


 VandeVondele, J; Hutter, J. 
 JOURNAL OF CHEMICAL PHYSICS, 127 (11), 114105 (2007). 
 Gaussian basis sets for accurate calculations on molecular systems in
 gas and condensed phases.
 http://dx.doi.org/10.1063/1.2770708


 Krack, M. 
 THEORETICAL CHEMISTRY ACCOUNTS, 114 (1-3), 145-152 (2005). 
 Pseudopotentials for H to Kr optimized for gradient-corrected
 exchange-correlation functionals.
 http://dx.doi.org/10.1007/s00214-005-0655-y


 VandeVondele, J; Krack, M; Mohamed, F; Parrinello, M; Chassaing, T;
 Hutter, J. COMPUTER PHYSICS COMMUNICATIONS, 167 (2), 103-128 (2005). 
 QUICKSTEP: Fast and accurate density functional calculations using a
 mixed Gaussian and plane waves approach.
 http://dx.doi.org/10.1016/j.cpc.2004.12.014


 Frigo, M; Johnson, SG. 
 PROCEEDINGS OF THE IEEE, 93 (2), 216-231 (2005). 
 The design and implementation of FFTW3.
 http://dx.doi.org/10.1109/JPROC.2004.840301


 Kolafa, J. 
 JOURNAL OF COMPUTATIONAL CHEMISTRY, 25 (3), 335-342 (2004). 
 Time-reversible always stable predictor-corrector method for molecular dynamics of polarizable molecules.
 http://dx.doi.org/10.1002/jcc.10385


 VandeVondele, J; Hutter, J. 
 JOURNAL OF CHEMICAL PHYSICS, 118 (10), 4365-4369 (2003). 
 An efficient orbital transformation method for electronic structure
 calculations.
 http://dx.doi.org/10.1063/1.1543154


 Hartwigsen, C; Goedecker, S; Hutter, J. 
 PHYSICAL REVIEW B, 58 (7), 3641-3662 (1998). 
 Relativistic separable dual-space Gaussian pseudopotentials from H to Rn.
 http://dx.doi.org/10.1103/PhysRevB.58.3641


 Lippert, G; Hutter, J; Parrinello, M. 
 MOLECULAR PHYSICS, 92 (3), 477-487 (1997). 
 A hybrid Gaussian and plane wave density functional scheme.
 http://dx.doi.org/10.1080/002689797170220


 Perdew, JP; Burke, K; Ernzerhof, M. 
 PHYSICAL REVIEW LETTERS, 77 (18), 3865-3868 (1996). 
 Generalized gradient approximation made simple.
 http://dx.doi.org/10.1103/PhysRevLett.77.3865


 Goedecker, S; Teter, M; Hutter, J. 
 PHYSICAL REVIEW B, 54 (3), 1703-1710 (1996). 
 Separable dual-space Gaussian pseudopotentials.
 http://dx.doi.org/10.1103/PhysRevB.54.1703


 -------------------------------------------------------------------------------
 -                                                                             -
 -                                T I M I N G                                  -
 -                                                                             -
 -------------------------------------------------------------------------------
 SUBROUTINE                       CALLS  ASD         SELF TIME        TOTAL TIME
                                MAXIMUM       AVERAGE  MAXIMUM  AVERAGE  MAXIMUM
 CP2K                                 1  1.0    0.016    0.030 5219.435 5219.437
 cp_geo_opt                           1  2.0    0.001    0.001 5218.793 5218.793
 geoopt_bfgs                          1  3.0    0.034    0.038 5218.792 5218.793
 cp_eval_at                         201  4.0    0.032    0.037 5214.997 5215.004
 qs_forces                          201  5.0    0.020    0.025 5214.947 5214.949
 qs_energies                        201  6.0    0.014    0.018 5171.647 5171.653
 scf_env_do_scf                     201  7.0    0.024    0.048 5140.973 5140.993
 scf_env_do_scf_inner_loop        15335  8.0    0.590    1.043 5069.711 5069.842
 rebuild_ks_matrix                15536 10.0    0.106    0.132 2517.694 2518.692
 qs_ks_build_kohn_sham_matrix     15536 11.0    2.362    2.935 2517.588 2518.605
 qs_ks_update_qs_env              15738  9.0    0.543    0.772 2484.515 2485.451
 rs_pw_transfer                  124690 13.5    2.924    6.149 2079.923 2227.394
 sum_up_and_integrate             15536 12.0    3.607    6.669 1499.238 1555.014
 integrate_v_rspace               31072 13.0  120.006  185.492 1495.565 1551.795
 qs_rho_update_rho                15536  9.0    0.179    0.325 1449.764 1450.390
 calculate_rho_elec               31072 10.0  139.559  209.971 1449.585 1450.221
 potential_pw2rs                  31072 14.0    0.633    0.885 1304.926 1343.718
 density_rs2pw                    31072 11.0    0.603    0.935 1093.598 1232.299
 qs_scf_new_mos                   15335  9.0    0.069    0.111 1210.287 1211.171
 qs_scf_loop_do_ot                15335 10.0    0.047    0.064 1210.218 1211.080
 ot_scf_mini                      15335 11.0    0.450    0.527 1167.746 1168.426
 mp_waitany                     1438558 15.5  724.695 1117.310  724.695 1117.310
 dbcsr_multiply_generic          659163 14.1    8.202    8.508 1021.706 1053.698
 pw_transfer                     419673 13.7   20.964   26.090  959.485 1011.103
 fft_wrap_pw1pw2                 388601 14.8    1.887    2.376  934.463  990.041
 fft_wrap_pw1pw2_200             326457 15.9   25.020   36.766  876.858  928.373
 fft3d_ps                        388601 16.8  184.914  296.391  824.391  894.432
 qs_vxc_create                    15536 12.0    0.440    0.763  849.827  852.506
 xc_vxc_pw_create                 15536 13.0   17.783   22.592  849.387  852.079
 mp_waitall_1                   ******* 17.2  654.985  839.972  654.985  839.972
 rs_pw_transfer_PW2RS_200         31273 15.9  200.913  270.328  706.098  764.764
 rs_pw_transfer_RS2PW_200         31273 13.0  159.271  221.811  546.590  685.803
 ot_mini                          15335 12.0    0.067    0.094  677.617  678.626
 mp_alltoall_z22v                388601 18.8  582.705  672.248  582.705  672.248
 qs_ot_get_derivative             30670 13.0    0.254    0.272  602.556  603.299
 xc_rho_set_and_dset_create       15536 14.0   11.091   18.323  386.153  519.029
 rs_pw_transfer_PW2RS_70          31072 16.0   70.953  116.141  447.083  493.040
 yz_to_x                         155561 17.8    9.178   18.256  407.838  477.009
 make_m2s                       1318326 15.1    9.318    9.767  433.082  462.158
 make_images                    1318326 16.1  133.894  139.092  396.829  426.384
 rs_pw_transfer_RS2PW_70          31072 13.0   88.945  177.037  377.228  393.118
 qs_ot_get_derivative_diag        22054 14.0    0.521    0.547  376.204  376.770
 qs_ot_get_p                      31476 11.9    0.109    0.122  365.160  373.363
 multiply_cannon                 659163 15.1   70.526   75.492  330.769  360.186
 mp_isendrecv_dv                7457280 15.5  175.029  357.729  175.029  357.729
 rs_grid_zero                     93618 13.0  269.796  301.076  269.796  301.076
 xc_functional_eval               15536 15.0    0.152    0.369  166.357  300.746
 pbe_lsd_eval                     15536 16.0  166.205  300.686  166.205  300.686
 rs_distribute_matrix             62546 12.5    1.721    3.147   91.981  258.666
 mp_alltoall_d11v                448523 16.2   90.523  256.760   90.523  256.760
 make_images_sizes              1318326 17.1    0.738    0.841  211.956  251.517
 mp_alltoall_i44                1318326 18.1  211.218  250.704  211.218  250.704
 qs_ot_p2m_diag                   22676 13.0    1.000    9.680  222.929  231.820
 x_to_yz                         170896 18.0    9.384   18.676  184.737  200.418
 cp_dbcsr_syevd                   22676 14.0    2.277    2.476  151.421  153.753
 mp_sum_l                       1187268 15.3  122.504  144.562  122.504  144.562
 cp_fm_syevd                      22877 14.9  124.164  128.847  134.619  135.886
 -------------------------------------------------------------------------------

 The number of warnings for this run is : 1
 
 -------------------------------------------------------------------------------
  **** **** ******  **  PROGRAM ENDED AT                 2023-03-24 23:18:51.322
 ***** ** ***  *** **   PROGRAM RAN ON            node131.pri.kelvin2.alces.netw
 **    ****   ******    PROGRAM RAN BY                                  40265864
 ***** **    ** ** **   PROGRAM PROCESS ID                                129160
  **** **  *******  **  PROGRAM STOPPED IN /mnt/scratch2/users/40265864/MSc_ML_M
                                           M/ln_replacements/xyz/Dy_L18_L20_L20_
                                           MeO_O/geometry_optimisation/run-0
