     113
 i =       27, E =      -883.3976766754
 Cl        -2.2913438483        1.6883108495      -13.2728767262
  C        -1.5630999572        1.1701849760      -11.8101677933
  C        -0.4654076230        1.9003671852      -11.2746238486
  C         0.1141129937        1.4878649847      -10.0719042686
  C        -0.3729639962        0.3333742326       -9.3820112241
  C        -1.4752588928       -0.3876838087       -9.9443989994
  C        -2.0665698111        0.0226911658      -11.1421482086
  C         0.2739264328       -0.1155629735       -8.1293645262
  C         0.5376424073        0.8876403727       -7.1126227896
  C         0.0369446025        2.2680301131       -7.1002993049
  C         0.5873263175        2.8807963285       -5.9982834263
  C         1.4080709123        1.8756727725       -5.3201026540
  N         1.3278008703        0.6824372134       -6.0137713976
 Dy         2.7429746180       -1.1142625537       -5.6526935088
  N         1.0461566389       -2.1368781934       -6.8455516623
  C         0.5916402369       -1.5189505570       -8.0064820226
  C         0.4648730607       -2.5169864004       -9.0582837690
  C         0.7677690721       -3.7433690971       -8.4973025070
  C         1.1170756484       -3.4936992586       -7.1062075417
  C         1.4958483534       -4.5138223970       -6.1618652968
  C         2.1170393664       -4.2947861345       -4.8824503227
  N         2.4844731406       -3.0561492446       -4.3930433968
  C         3.2140069378       -3.2665391319       -3.2451269759
  C         3.2441001929       -4.6977462691       -2.9402235093
  C         2.5472638524       -5.3328284121       -3.9462651098
  C         3.9300691717       -2.2471793489       -2.5158915027
  C         3.7396994515       -0.8267730383       -2.6557533757
  N         2.8530098129       -0.2419096913       -3.5472081860
  C         2.9463373195        1.1273550188       -3.3920859555
  C         2.2148208773        2.1054212083       -4.1578828778
  C         2.3399627877        3.5289375008       -3.7133720079
  C         1.6532215374        3.9717364032       -2.5495008297
  C         1.7306584949        5.3120679324       -2.1495162188
  C         2.5357838788        6.2143194559       -2.8995190679
  C         3.2390435238        5.7822283889       -4.0555531040
  C         3.1237824631        4.4482443576       -4.4664774099
 Cl         2.6593392668        7.8475875804       -2.3861565606
  C         3.9452800489        1.4287082234       -2.3633887509
  C         4.4515049717        0.2250315183       -1.9272026940
  C         5.0483844288       -2.7533764453       -1.6721157896
  C         5.1527036670       -2.5256581747       -0.2710516918
  C         6.2119564425       -3.0782157440        0.4619896099
  C         7.2039196327       -3.8509590235       -0.2067994650
  C         7.1294323667       -4.0704202969       -1.6052763902
  C         6.0566867017       -3.5316875168       -2.3226390346
 Cl         8.5048700344       -4.5123501016        0.6937065100
  C         1.2308460508       -5.9257370241       -6.5512272099
  C        -0.1099969106       -6.3435598526       -6.8035052628
  C        -0.3981188540       -7.6898138287       -7.0598074037
  C         0.6633304156       -8.6299091010       -7.1090826428
  C         2.0125309367       -8.2190095627       -6.9298202978
  C         2.2868299088       -6.8788460078       -6.6365849088
 Cl         0.3143366538      -10.2893953084       -7.3809716321
  O         0.0390260940       -0.6084455903       -3.1275531918
  C        -0.5347589180       -1.4921657745       -2.4234937930
  C        -1.3976659649       -2.4594701584       -3.0232199334
  C        -1.6002331160       -2.1966566957       -4.4022414540
  O        -1.0488463182       -1.2342095502       -5.0086636559
  C        -2.5954015324       -3.0466528344       -5.2590061474
  F        -2.8465571866       -4.2574622792       -4.7112075634
  F        -3.7548905117       -2.3644138760       -5.3696941548
  F        -2.0875684692       -3.2652534450       -6.5125456395
  C        -0.3635379249       -1.3715027177       -0.9047978795
  C        -0.2741136882       -2.6529913447       -0.0557926892
  C         0.3835467939       -2.1155891833        1.2455846875
  C         0.9857089524       -0.7440467877        0.8361656894
  O         0.8229268272       -0.6264852286       -0.6088780412
  O         4.5923584440       -2.2458046127       -6.1621085637
  C         5.1535399090       -2.2240531432       -7.3169120914
  C         5.1881902677       -1.1132619085       -8.1893802086
  C         4.7002846156        0.1442596411       -7.7311660116
  O         4.1670318433        0.3758396654       -6.5901753600
  C         4.7649688218        1.3916962079       -8.6444651174
  F         4.5274053893        1.0464485514       -9.9388326149
  F         5.9639472302        2.0122597080       -8.5488514469
  F         3.7983028288        2.2930522857       -8.2721189357
  C         5.8466172859       -3.5586941769       -7.6335489037
  F         5.1479058399       -4.5824928595       -7.0454751904
  F         7.0924124050       -3.5436172754       -7.0928034760
  F         5.9144011562       -3.8056461874       -8.9631111633
  H        -0.0815543445        2.7701216786      -11.8123544659
  H         0.9821976807        2.0296379611       -9.6878232625
  H        -1.8957960267       -1.2397188656       -9.4047961361
  H        -2.9156544229       -0.5220670612      -11.5611244825
  H        -0.6699417167        2.7022168064       -7.8045781135
  H         0.4222160028        3.9048133773       -5.6683440464
  H         0.2341171223       -2.3242306235      -10.1043146079
  H         0.8019911367       -4.7062893722       -9.0050572896
  H         3.7054455562       -5.1596728660       -2.0693202268
  H         2.3364344411       -6.3974389889       -4.0220090394
  H         1.0345029059        3.2683286975       -1.9854632978
  H         1.1768177623        5.6677610923       -1.2776917498
  H         3.8620089812        6.4906927998       -4.6059808065
  H         3.6587299530        4.1098840093       -5.3587011125
  H         4.2655907007        2.4237286905       -2.0578205736
  H         5.2523534335        0.0733475876       -1.2053808811
  H         4.3774093590       -1.9576828979        0.2507825420
  H         6.2811121355       -2.9331944932        1.5423338144
  H         7.9067510294       -4.6501143568       -2.1084213048
  H         6.0048928262       -3.6856591756       -3.4039804443
  H        -0.9270706254       -5.6204655382       -6.7447057872
  H        -1.4282046948       -8.0219116077       -7.2094516028
  H         2.8197248144       -8.9488702935       -7.0185831423
  H         3.3231756605       -6.5541803354       -6.5108329468
  H        -1.9016105272       -3.2543248897       -2.4697740047
  H        -1.2573641649       -0.7812849914       -0.6013307517
  H        -1.2625125445       -3.1003490546        0.1238188571
  H         0.3645015696       -3.4007440764       -0.5531681310
  H        -0.3623317849       -1.9882757259        2.0425732651
  H         1.1529929509       -2.8060297091        1.6172539006
  H         0.4488349163        0.0950745661        1.3159248673
  H         2.0604018784       -0.6298039761        1.0436383429
  H         5.6292653246       -1.1995141689       -9.1809983494
