srun: Job 11231487 step creation temporarily disabled, retrying (Requested nodes are busy)
srun: Step created for job 11231487
 DBCSR| Multiplication driver                                               XSMM
 DBCSR| Multrec recursion limit                                              512
 DBCSR| Multiplication stack size                                           1000
 DBCSR| Maximum elements for images                                    UNLIMITED
 DBCSR| Multiplicative factor virtual images                                   1
 DBCSR| Randmat seed                                                    12341313
 DBCSR| Multiplication size stacks                                             3
 DBCSR| Number of 3D layers                                               SINGLE
 DBCSR| Use MPI memory allocation                                              T
 DBCSR| Use RMA algorithm                                                      F
 DBCSR| Use Communication thread                                               T
 DBCSR| Communication thread load                                             87


  **** **** ******  **  PROGRAM STARTED AT               2023-02-20 21:09:08.416
 ***** ** ***  *** **   PROGRAM STARTED ON        node138.pri.kelvin2.alces.netw
 **    ****   ******    PROGRAM STARTED BY                              40265864
 ***** **    ** ** **   PROGRAM PROCESS ID                                 10091
  **** **  *******  **  PROGRAM STARTED IN /mnt/scratch2/users/40265864/MSc_ML_M
                                           M/ln_replacements/xyz/Gd_L6_O_O_O_O/p
                                           relim_energy/run-6

 CP2K| version string:                                          CP2K version 4.1
 CP2K| source code revision number:                                    svn:17462
 CP2K| cp2kflags: libint fftw3 libxc parallel mpi3 scalapack libxsmm libderiv_ma
 CP2K|            x_am1=5 libint_max_am=6
 CP2K| is freely available from                            https://www.cp2k.org/
 CP2K| Program compiled at                          Mon 24 Oct 18:14:20 BST 2022
 CP2K| Program compiled on                      login1.pri.kelvin2.alces.network
 CP2K| Program compiled for                                                local
 CP2K| Data directory path                      /users/40265864/source/cp2k/data
 CP2K| Input file name                                               geo-opt.inp

 GLOBAL| Force Environment number                                              1
 GLOBAL| Basis set file name                                 ../BASIS_MOLOPT_UCL
 GLOBAL| Potential file name                                        ../POTENTIAL
 GLOBAL| MM Potential file name                                     MM_POTENTIAL
 GLOBAL| Coordinate file name                            ../../Gd_L6_O_O_O_O.xyz
 GLOBAL| Method name                                                        CP2K
 GLOBAL| Project name                                              Gd_L6_O_O_O_O
 GLOBAL| Preferred FFT library                                             FFTW3
 GLOBAL| Preferred diagonalization lib.                                       SL
 GLOBAL| Run type                                                   ENERGY_FORCE
 GLOBAL| All-to-all communication in single precision                          F
 GLOBAL| FFTs using library dependent lengths                                  F
 GLOBAL| Global print level                                                  LOW
 GLOBAL| Total number of message passing processes                           121
 GLOBAL| Number of threads for this process                                    1
 GLOBAL| This output is from process                                           0
 GLOBAL| CPU model name :  AMD EPYC 7702 64-Core Processor

 MEMORY| system memory details [Kb]
 MEMORY|                        rank 0           min           max       average
 MEMORY| MemTotal            792056776     792056776     792056776     792056776
 MEMORY| MemFree             742931864     742931864     742931864     742931864
 MEMORY| Buffers                211976        211976        211976        211976
 MEMORY| Cached               24178640      24178640      24178640      24178640
 MEMORY| Slab                  5686224       5686224       5686224       5686224
 MEMORY| SReclaimable          4158372       4158372       4158372       4158372
 MEMORY| MemLikelyFree       771480852     771480852     771480852     771480852


 GENERATE|  Preliminary Number of Bonds generated:                             0
 GENERATE|  Achieved consistency in connectivity generation.

 *******************************************************************************
 *******************************************************************************
 **                                                                           **
 **     #####                         ##              ##                      **
 **    ##   ##            ##          ##              ##                      **
 **   ##     ##                       ##            ######                    **
 **   ##     ##  ##   ##  ##   #####  ##  ##   ####   ##    #####    #####    **
 **   ##     ##  ##   ##  ##  ##      ## ##   ##      ##   ##   ##  ##   ##   **
 **   ##  ## ##  ##   ##  ##  ##      ####     ###    ##   ######   ######    **
 **    ##  ###   ##   ##  ##  ##      ## ##      ##   ##   ##       ##        **
 **     #######   #####   ##   #####  ##  ##  ####    ##    #####   ##        **
 **           ##                                                    ##        **
 **                                                                           **
 **                                                ... make the atoms dance   **
 **                                                                           **
 **            Copyright (C) by CP2K developers group (2000 - 2016)           **
 **                                                                           **
 *******************************************************************************


 SCF PARAMETERS         Density guess:                                   RESTART
                        --------------------------------------------------------
                        max_scf:                                              50
                        max_scf_history:                                       0
                        max_diis:                                              4
                        --------------------------------------------------------
                        eps_scf:                                        5.00E-07
                        eps_scf_history:                                0.00E+00
                        eps_diis:                                       1.00E-01
                        eps_eigval:                                     1.00E-05
                        --------------------------------------------------------
                        level_shift [a.u.]:                                 0.00
                        --------------------------------------------------------
                        Outer loop SCF in use 
                        No variables optimised in outer loop
                        eps_scf                                         5.00E-07
                        max_scf                                               20
                        No outer loop optimization
                        step_size                                       5.00E-01

 Spin 1

 Number of electrons:                                                        526
 Number of occupied orbitals:                                                526
 Number of molecular orbitals:                                               526

 Spin 2

 Number of electrons:                                                        521
 Number of occupied orbitals:                                                521
 Number of molecular orbitals:                                               521

 Number of orbital functions:                                               3702
 Number of independent orbital functions:                                   3702

 Extrapolation method: initial_guess

 *** WARNING in qs_initial_guess.F:262 :: User requested to restart the    ***
 *** wavefunction from the file named: Gd_L6_O_O_O_O-RESTART.wfn. This     ***
 *** file does not exist. Please check the existence of the file or change ***
 *** properly the value of the keyword WFN_RESTART_FILE_NAME. Calculation  ***
 *** continues using ATOMIC GUESS.                                         ***



 SCF WAVEFUNCTION OPTIMIZATION

  ----------------------------------- OT ---------------------------------------
  Minimizer      : DIIS                : direct inversion
                                         in the iterative subspace
                                         using   7 DIIS vectors
                                         safer DIIS on
  Preconditioner : FULL_KINETIC        : inversion of T + eS
  Precond_solver : DEFAULT
  stepsize       :    0.15000000                  energy_gap     :    0.20000000
  eps_taylor     :   0.10000E-15                  max_taylor     :             4
  ----------------------------------- OT ---------------------------------------

  Step     Update method      Time    Convergence         Total energy    Change
  ------------------------------------------------------------------------------
     1 OT DIIS     0.15E+00    9.4     0.00709927     -1419.5223930899 -1.42E+03
     2 OT DIIS     0.15E+00   10.8     0.00501102     -1443.7034503039 -2.42E+01
     3 OT DIIS     0.15E+00   10.8     0.00368156     -1464.5430943721 -2.08E+01
     4 OT DIIS     0.15E+00   10.9     0.00282570     -1481.7380625335 -1.72E+01
     5 OT DIIS     0.15E+00   10.9     0.00227598     -1493.6371232451 -1.19E+01
     6 OT DIIS     0.15E+00   10.9     0.00181672     -1503.1403298590 -9.50E+00
     7 OT DIIS     0.15E+00   10.9     0.00142743     -1510.2278463595 -7.09E+00
     8 OT DIIS     0.15E+00   10.9     0.00112563     -1515.1897205736 -4.96E+00
     9 OT DIIS     0.15E+00   10.9     0.00094452     -1517.8944065265 -2.70E+00
    10 OT DIIS     0.15E+00   10.9     0.00078248     -1519.9681886368 -2.07E+00
    11 OT DIIS     0.15E+00   10.9     0.00066068     -1521.5100575787 -1.54E+00
    12 OT DIIS     0.15E+00   11.0     0.00054775     -1522.7715523400 -1.26E+00
    13 OT DIIS     0.15E+00   10.9     0.00048651     -1523.4521736275 -6.81E-01
    14 OT DIIS     0.15E+00   10.9     0.00040642     -1524.2432536690 -7.91E-01
    15 OT DIIS     0.15E+00   10.8     0.00036103     -1524.6677835561 -4.25E-01
    16 OT DIIS     0.15E+00   10.8     0.00030530     -1525.1502299210 -4.82E-01
    17 OT DIIS     0.15E+00   10.9     0.00026251     -1525.5042762833 -3.54E-01
    18 OT DIIS     0.15E+00   10.9     0.00023503     -1525.7244198496 -2.20E-01
    19 OT DIIS     0.15E+00   10.9     0.00019867     -1525.9888347404 -2.64E-01
    20 OT DIIS     0.15E+00   10.9     0.00019456     -1526.0471590658 -5.83E-02
    21 OT DIIS     0.15E+00   10.9     0.00017128     -1526.1866473342 -1.39E-01
    22 OT DIIS     0.15E+00   11.1     0.00014924     -1526.3190600424 -1.32E-01
    23 OT DIIS     0.15E+00   10.9     0.00013714     -1526.4139049879 -9.48E-02
    24 OT DIIS     0.15E+00   10.9     0.00012730     -1526.5023217093 -8.84E-02
    25 OT DIIS     0.15E+00   10.9     0.00011782     -1526.5583568344 -5.60E-02
    26 OT DIIS     0.15E+00   11.0     0.00011453     -1526.6283194894 -7.00E-02
    27 OT DIIS     0.15E+00   10.9     0.00011526     -1526.6285164046 -1.97E-04
    28 OT DIIS     0.15E+00   10.9     0.00010463     -1526.6594369399 -3.09E-02
    29 OT DIIS     0.15E+00   11.0     0.00009713     -1526.7142600501 -5.48E-02
    30 OT DIIS     0.15E+00   11.0     0.00009428     -1526.7324842369 -1.82E-02
    31 OT DIIS     0.15E+00   10.9     0.00008656     -1526.7892600527 -5.68E-02
    32 OT DIIS     0.15E+00   10.9     0.00008178     -1526.8267179994 -3.75E-02
    33 OT DIIS     0.15E+00   10.9     0.00007599     -1526.8737846900 -4.71E-02
    34 OT DIIS     0.15E+00   10.9     0.00007336     -1526.8906435720 -1.69E-02
    35 OT SD       0.15E+00   10.9     0.00007310     -1526.8987057549 -8.06E-03
    36 OT DIIS     0.15E+00   10.9     0.00007234     -1526.9017946194 -3.09E-03
    37 OT DIIS     0.15E+00   11.0     0.00006742     -1526.9425762170 -4.08E-02
    38 OT SD       0.15E+00   10.8     0.00006733     -1526.9495494839 -6.97E-03
    39 OT DIIS     0.15E+00   10.9     0.00006679     -1526.9521737655 -2.62E-03
    40 OT DIIS     0.15E+00   10.8     0.00006287     -1526.9952721954 -4.31E-02
    41 OT SD       0.15E+00   10.9     0.00006652     -1526.9953276001 -5.54E-05
    42 OT DIIS     0.15E+00   10.9     0.00006566     -1526.9978802976 -2.55E-03
    43 OT DIIS     0.15E+00   10.8     0.00006266     -1527.0043994329 -6.52E-03
    44 OT DIIS     0.15E+00   11.2     0.00006197     -1527.0106229840 -6.22E-03
    45 OT DIIS     0.15E+00   11.0     0.00006173     -1527.0183112633 -7.69E-03
    46 OT DIIS     0.15E+00   10.9     0.00006146     -1527.0223391225 -4.03E-03
    47 OT DIIS     0.15E+00   10.9     0.00006120     -1527.0256407807 -3.30E-03
    48 OT DIIS     0.15E+00   11.0     0.00006050     -1527.0448596791 -1.92E-02
    49 OT SD       0.15E+00   10.9     0.00006045     -1527.0567862152 -1.19E-02
    50 OT SD       0.15E+00   10.9     0.00006045     -1527.0589105181 -2.12E-03

  Leaving inner SCF loop after reaching    50 steps.


  Electronic density on regular grids:      -1046.9999999781        0.0000000219
  Core density on regular grids:             1049.9999999271       -0.0000000729
  Total charge density on r-space grids:        2.9999999490
  Total charge density g-space grids:           2.9999999490

  Overlap energy of the core charge distribution:               0.00009108160821
  Self energy of the core charge distribution:              -3603.95462265793367
  Core Hamiltonian energy:                                   1131.15806388423425
  Hartree energy:                                            1410.33056106982417
  Exchange-correlation energy:                               -464.59300389588054

  Total energy:                                             -1527.05891051814706

  outer SCF iter =    1 RMS gradient =   0.60E-04 energy =      -1527.0589105181

  ----------------------------------- OT ---------------------------------------
  Minimizer      : DIIS                : direct inversion
                                         in the iterative subspace
                                         using   7 DIIS vectors
                                         safer DIIS on
  Preconditioner : FULL_KINETIC        : inversion of T + eS
  Precond_solver : DEFAULT
  stepsize       :    0.15000000                  energy_gap     :    0.20000000
  eps_taylor     :   0.10000E-15                  max_taylor     :             4
  ----------------------------------- OT ---------------------------------------

  Step     Update method      Time    Convergence         Total energy    Change
  ------------------------------------------------------------------------------
     1 OT DIIS     0.15E+00   22.2     0.00010463     -1527.0610352838 -2.12E-03
     2 OT DIIS     0.15E+00   10.9     0.00009561     -1527.0671115300 -6.08E-03
     3 OT DIIS     0.15E+00   10.7     0.00007050     -1527.0903269826 -2.32E-02
     4 OT DIIS     0.15E+00   10.8     0.00006269     -1527.1040124165 -1.37E-02
     5 OT DIIS     0.15E+00   10.9     0.00005909     -1527.1156029919 -1.16E-02
     6 OT DIIS     0.15E+00   10.9     0.00005702     -1527.1264803183 -1.09E-02
     7 OT DIIS     0.15E+00   10.9     0.00005595     -1527.1363389335 -9.86E-03
     8 OT DIIS     0.15E+00   11.5     0.00005516     -1527.1481895067 -1.19E-02
     9 OT DIIS     0.15E+00   12.1     0.00005462     -1527.1598959467 -1.17E-02
    10 OT DIIS     0.15E+00   12.1     0.00005426     -1527.1716758010 -1.18E-02
    11 OT DIIS     0.15E+00   14.7     0.00005411     -1527.1800305713 -8.35E-03
    12 OT DIIS     0.15E+00   18.6     0.00005407     -1527.1857163527 -5.69E-03
    13 OT SD       0.15E+00   11.9     0.00005408     -1527.1875293103 -1.81E-03
    14 OT DIIS     0.15E+00   12.6     0.00005407     -1527.1892297659 -1.70E-03
    15 OT DIIS     0.15E+00   12.4     0.00005417     -1527.1898692565 -6.39E-04
    16 OT SD       0.15E+00   11.7     0.00005382     -1527.1911219118 -1.25E-03
    17 OT DIIS     0.15E+00   10.9     0.00005379     -1527.1928054518 -1.68E-03
    18 OT DIIS     0.15E+00   10.9     0.00005313     -1527.1966490637 -3.84E-03
    19 OT DIIS     0.15E+00   10.9     0.00005277     -1527.2018649894 -5.22E-03
    20 OT SD       0.15E+00   11.0     0.00005224     -1527.2048896252 -3.02E-03
    21 OT DIIS     0.15E+00   11.1     0.00005204     -1527.2064730022 -1.58E-03
    22 OT SD       0.15E+00   11.2     0.00005022     -1527.2162447776 -9.77E-03
    23 OT DIIS     0.15E+00   11.0     0.00005003     -1527.2177076356 -1.46E-03
    24 OT DIIS     0.15E+00   11.0     0.00004906     -1527.2240019325 -6.29E-03
    25 OT DIIS     0.15E+00   11.0     0.00004767     -1527.2348993416 -1.09E-02
    26 OT DIIS     0.15E+00   11.3     0.00004578     -1527.2492932159 -1.44E-02
    27 OT DIIS     0.15E+00   17.8     0.00004301     -1527.2585044202 -9.21E-03
    28 OT DIIS     0.15E+00   12.5     0.00004271     -1527.2599803016 -1.48E-03
    29 OT DIIS     0.15E+00   10.9     0.00003983     -1527.2736422508 -1.37E-02
    30 OT SD       0.15E+00   11.6     0.00003728     -1527.2837976143 -1.02E-02
    31 OT DIIS     0.15E+00   11.3     0.00003699     -1527.2846019562 -8.04E-04
    32 OT DIIS     0.15E+00   11.7     0.00003596     -1527.2881150817 -3.51E-03
    33 OT DIIS     0.15E+00   12.5     0.00003514     -1527.2922268963 -4.11E-03
    34 OT DIIS     0.15E+00   11.9     0.00003531     -1527.2927901031 -5.63E-04
    35 OT DIIS     0.15E+00   11.9     0.00003484     -1527.2930538870 -2.64E-04
    36 OT DIIS     0.15E+00   11.8     0.00003459     -1527.2948135188 -1.76E-03
    37 OT DIIS     0.15E+00   11.8     0.00003426     -1527.2971619073 -2.35E-03
    38 OT SD       0.15E+00   17.2     0.00003406     -1527.3017089031 -4.55E-03
    39 OT DIIS     0.15E+00   13.0     0.00003395     -1527.3023818173 -6.73E-04
    40 OT DIIS     0.15E+00   11.4     0.00003391     -1527.3043710803 -1.99E-03
    41 OT SD       0.15E+00   11.2     0.00003394     -1527.3046133161 -2.42E-04
    42 OT SD       0.15E+00   11.3     0.00003399     -1527.3052833660 -6.70E-04
    43 OT SD       0.15E+00   11.1     0.00003406     -1527.3059557077 -6.72E-04
    44 OT SD       0.15E+00   11.0     0.00003414     -1527.3066308337 -6.75E-04
    45 OT SD       0.15E+00   11.1     0.00003422     -1527.3073091376 -6.78E-04
    46 OT SD       0.15E+00   11.4     0.00003432     -1527.3079909481 -6.82E-04
    47 OT SD       0.15E+00   11.5     0.00003441     -1527.3086765473 -6.86E-04
    48 OT SD       0.15E+00   11.9     0.00003452     -1527.3093661831 -6.90E-04
    49 OT SD       0.15E+00   11.5     0.00003463     -1527.3100600767 -6.94E-04
    50 OT SD       0.15E+00   11.6     0.00003474     -1527.3107584281 -6.98E-04

  Leaving inner SCF loop after reaching    50 steps.


  Electronic density on regular grids:      -1046.9999999781        0.0000000219
  Core density on regular grids:             1049.9999999271       -0.0000000729
  Total charge density on r-space grids:        2.9999999490
  Total charge density g-space grids:           2.9999999490

  Overlap energy of the core charge distribution:               0.00009108160821
  Self energy of the core charge distribution:              -3603.95462265793367
  Core Hamiltonian energy:                                   1131.23863166014780
  Hartree energy:                                            1410.19407869686120
  Exchange-correlation energy:                               -464.78893720877068

  Total energy:                                             -1527.31075842808696

  outer SCF iter =    2 RMS gradient =   0.35E-04 energy =      -1527.3107584281

  ----------------------------------- OT ---------------------------------------
  Minimizer      : DIIS                : direct inversion
                                         in the iterative subspace
                                         using   7 DIIS vectors
                                         safer DIIS on
  Preconditioner : FULL_KINETIC        : inversion of T + eS
  Precond_solver : DEFAULT
  stepsize       :    0.15000000                  energy_gap     :    0.20000000
  eps_taylor     :   0.10000E-15                  max_taylor     :             4
  ----------------------------------- OT ---------------------------------------

  Step     Update method      Time    Convergence         Total energy    Change
  ------------------------------------------------------------------------------
     1 OT DIIS     0.15E+00   23.2     0.00003882     -1527.3114614203 -7.03E-04
     2 OT DIIS     0.15E+00   11.7     0.00003811     -1527.3123284474 -8.67E-04
     3 OT DIIS     0.15E+00   12.2     0.00003693     -1527.3159106497 -3.58E-03
     4 OT DIIS     0.15E+00   12.0     0.00003686     -1527.3180450228 -2.13E-03
     5 OT SD       0.15E+00   11.3     0.00003697     -1527.3193473409 -1.30E-03
     6 OT SD       0.15E+00   13.0     0.00003704     -1527.3201426609 -7.95E-04
     7 OT SD       0.15E+00   12.0     0.00003712     -1527.3209410463 -7.98E-04
     8 OT SD       0.15E+00   14.2     0.00003721     -1527.3217430596 -8.02E-04
     9 OT SD       0.15E+00   13.8     0.00003731     -1527.3225491781 -8.06E-04
    10 OT SD       0.15E+00   11.4     0.00003742     -1527.3233598306 -8.11E-04
    11 OT SD       0.15E+00   11.3     0.00003754     -1527.3241754113 -8.16E-04
    12 OT SD       0.15E+00   11.5     0.00003767     -1527.3249962878 -8.21E-04
    13 OT SD       0.15E+00   13.3     0.00003781     -1527.3258228053 -8.27E-04
    14 OT SD       0.15E+00   12.6     0.00003795     -1527.3266552908 -8.32E-04
    15 OT SD       0.15E+00   12.1     0.00003809     -1527.3274940547 -8.39E-04
    16 OT SD       0.15E+00   11.0     0.00003825     -1527.3283393936 -8.45E-04
    17 OT SD       0.15E+00   11.1     0.00003840     -1527.3291915913 -8.52E-04
    18 OT SD       0.15E+00   11.9     0.00003857     -1527.3300509203 -8.59E-04
    19 OT SD       0.15E+00   12.1     0.00003874     -1527.3309176430 -8.67E-04
    20 OT SD       0.15E+00   11.7     0.00003891     -1527.3317920120 -8.74E-04
    21 OT SD       0.15E+00   10.9     0.00003909     -1527.3326742715 -8.82E-04
    22 OT SD       0.15E+00   11.0     0.00003927     -1527.3335646556 -8.90E-04
    23 OT SD       0.15E+00   10.9     0.00003946     -1527.3344633939 -8.99E-04
    24 OT SD       0.15E+00   10.9     0.00003965     -1527.3353707056 -9.07E-04
    25 OT SD       0.15E+00   11.8     0.00003984     -1527.3362868032 -9.16E-04
    26 OT SD       0.15E+00   11.4     0.00004004     -1527.3372118918 -9.25E-04
    27 OT SD       0.15E+00   11.1     0.00004024     -1527.3381461695 -9.34E-04
    28 OT SD       0.15E+00   11.1     0.00004044     -1527.3390898270 -9.44E-04
    29 OT SD       0.15E+00   11.3     0.00004065     -1527.3400430480 -9.53E-04
    30 OT SD       0.15E+00   11.3     0.00004085     -1527.3410060091 -9.63E-04
    31 OT SD       0.15E+00   11.0     0.00004106     -1527.3419788797 -9.73E-04
    32 OT SD       0.15E+00   11.0     0.00004128     -1527.3429618221 -9.83E-04
    33 OT SD       0.15E+00   11.0     0.00004149     -1527.3439549911 -9.93E-04
    34 OT SD       0.15E+00   11.0     0.00004171     -1527.3449585343 -1.00E-03
    35 OT SD       0.15E+00   11.0     0.00004193     -1527.3459725888 -1.01E-03
    36 OT SD       0.15E+00   11.2     0.00004215     -1527.3469972923 -1.02E-03
    37 OT SD       0.15E+00   11.2     0.00004237     -1527.3480327676 -1.04E-03
    38 OT SD       0.15E+00   11.0     0.00004259     -1527.3490791317 -1.05E-03
    39 OT SD       0.15E+00   11.0     0.00004281     -1527.3501364940 -1.06E-03
    40 OT SD       0.15E+00   11.1     0.00004304     -1527.3512049560 -1.07E-03
    41 OT SD       0.15E+00   11.1     0.00004326     -1527.3522846110 -1.08E-03
    42 OT SD       0.15E+00   11.2     0.00004349     -1527.3533755445 -1.09E-03
    43 OT SD       0.15E+00   11.3     0.00004371     -1527.3544778336 -1.10E-03
    44 OT SD       0.15E+00   13.0     0.00004394     -1527.3555915471 -1.11E-03
    45 OT SD       0.15E+00   11.3     0.00004416     -1527.3567167459 -1.13E-03
    46 OT SD       0.15E+00   13.6     0.00004439     -1527.3578534823 -1.14E-03
    47 OT SD       0.15E+00   13.1     0.00004461     -1527.3590018003 -1.15E-03
    48 OT SD       0.15E+00   11.3     0.00004483     -1527.3601617356 -1.16E-03
    49 OT SD       0.15E+00   11.3     0.00004506     -1527.3613333156 -1.17E-03
    50 OT SD       0.15E+00   13.5     0.00004528     -1527.3625165591 -1.18E-03

  Leaving inner SCF loop after reaching    50 steps.


  Electronic density on regular grids:      -1046.9999999781        0.0000000219
  Core density on regular grids:             1049.9999999271       -0.0000000729
  Total charge density on r-space grids:        2.9999999489
  Total charge density g-space grids:           2.9999999489

  Overlap energy of the core charge distribution:               0.00009108160821
  Self energy of the core charge distribution:              -3603.95462265793367
  Core Hamiltonian energy:                                   1131.21846032566214
  Hartree energy:                                            1410.20335793688105
  Exchange-correlation energy:                               -464.82980324536220

  Total energy:                                             -1527.36251655914452

  outer SCF iter =    3 RMS gradient =   0.45E-04 energy =      -1527.3625165591

  ----------------------------------- OT ---------------------------------------
  Minimizer      : DIIS                : direct inversion
                                         in the iterative subspace
                                         using   7 DIIS vectors
                                         safer DIIS on
  Preconditioner : FULL_KINETIC        : inversion of T + eS
  Precond_solver : DEFAULT
  stepsize       :    0.15000000                  energy_gap     :    0.20000000
  eps_taylor     :   0.10000E-15                  max_taylor     :             4
  ----------------------------------- OT ---------------------------------------

  Step     Update method      Time    Convergence         Total energy    Change
  ------------------------------------------------------------------------------
     1 OT DIIS     0.15E+00   25.3     0.00004245     -1527.3637114770 -1.19E-03
     2 OT DIIS     0.15E+00   11.7     0.00004196     -1527.3647523123 -1.04E-03
     3 OT DIIS     0.15E+00   12.2     0.00004129     -1527.3685953548 -3.84E-03
     4 OT SD       0.15E+00   11.2     0.00004126     -1527.3712427136 -2.65E-03
     5 OT SD       0.15E+00   11.3     0.00004130     -1527.3722329283 -9.90E-04
     6 OT SD       0.15E+00   11.5     0.00004135     -1527.3732251246 -9.92E-04
     7 OT SD       0.15E+00   11.3     0.00004141     -1527.3742198019 -9.95E-04
     8 OT SD       0.15E+00   11.1     0.00004147     -1527.3752173440 -9.98E-04
     9 OT SD       0.15E+00   11.1     0.00004154     -1527.3762180653 -1.00E-03
    10 OT SD       0.15E+00   15.3     0.00004162     -1527.3772222335 -1.00E-03
    11 OT SD       0.15E+00   11.2     0.00004169     -1527.3782300806 -1.01E-03
    12 OT SD       0.15E+00   11.2     0.00004178     -1527.3792418106 -1.01E-03
    13 OT SD       0.15E+00   11.2     0.00004186     -1527.3802576045 -1.02E-03
    14 OT SD       0.15E+00   11.6     0.00004195     -1527.3812776234 -1.02E-03
    15 OT SD       0.15E+00   12.7     0.00004204     -1527.3823020119 -1.02E-03
    16 OT SD       0.15E+00   11.0     0.00004214     -1527.3833308999 -1.03E-03
    17 OT SD       0.15E+00   11.2     0.00004223     -1527.3843644042 -1.03E-03
    18 OT SD       0.15E+00   11.2     0.00004233     -1527.3854026306 -1.04E-03
    19 OT SD       0.15E+00   11.7     0.00004243     -1527.3864456741 -1.04E-03
    20 OT SD       0.15E+00   12.9     0.00004253     -1527.3874936206 -1.05E-03
    21 OT SD       0.15E+00   11.8     0.00004263     -1527.3885465475 -1.05E-03
    22 OT DIIS     0.15E+00   15.3     0.00004274     -1527.3896045241 -1.06E-03
    23 OT SD       0.15E+00   12.2     0.00007754     -1527.4115118891 -2.19E-02
    24 OT SD       0.15E+00   11.4     0.00006594     -1527.4147091526 -3.20E-03
    25 OT SD       0.15E+00   11.5     0.00006057     -1527.4171184872 -2.41E-03
    26 OT SD       0.15E+00   11.3     0.00005790     -1527.4191975479 -2.08E-03
    27 OT SD       0.15E+00   11.3     0.00005643     -1527.4211185880 -1.92E-03
    28 OT SD       0.15E+00   11.2     0.00005555     -1527.4229540750 -1.84E-03
    29 OT DIIS     0.15E+00   11.2     0.00005498     -1527.4247380941 -1.78E-03
    30 OT DIIS     0.15E+00   11.2     0.00005159     -1527.4655748490 -4.08E-02
    31 OT DIIS     0.15E+00   11.4     0.00004707     -1527.5093091206 -4.37E-02
    32 OT SD       0.15E+00   11.7     0.00003783     -1527.5370331791 -2.77E-02
    33 OT SD       0.15E+00   11.3     0.00003615     -1527.5378442665 -8.11E-04
    34 OT DIIS     0.15E+00   11.3     0.00003517     -1527.5385927546 -7.48E-04
    35 OT SD       0.15E+00   11.3     0.00003538     -1527.5449196965 -6.33E-03
    36 OT DIIS     0.15E+00   11.3     0.00003308     -1527.5456204527 -7.01E-04
    37 OT DIIS     0.15E+00   11.3     0.00003538     -1527.5600379992 -1.44E-02
    38 OT DIIS     0.15E+00   11.3     0.00002300     -1527.5597038933  3.34E-04
    39 OT DIIS     0.15E+00   11.4     0.00002153     -1527.5610945022 -1.39E-03
    40 OT DIIS     0.15E+00   11.3     0.00002040     -1527.5622709658 -1.18E-03
    41 OT DIIS     0.15E+00   11.2     0.00001815     -1527.5646523991 -2.38E-03
    42 OT DIIS     0.15E+00   13.1     0.00001692     -1527.5675062564 -2.85E-03
    43 OT DIIS     0.15E+00   11.3     0.00001657     -1527.5683926634 -8.86E-04
    44 OT DIIS     0.15E+00   11.4     0.00001453     -1527.5715946754 -3.20E-03
    45 OT DIIS     0.15E+00   11.2     0.00001376     -1527.5729871737 -1.39E-03
    46 OT DIIS     0.15E+00   11.4     0.00001279     -1527.5748604605 -1.87E-03
    47 OT DIIS     0.15E+00   11.4     0.00001228     -1527.5756845222 -8.24E-04
    48 OT DIIS     0.15E+00   11.5     0.00001058     -1527.5785199742 -2.84E-03
    49 OT DIIS     0.15E+00   11.4     0.00001006     -1527.5791736419 -6.54E-04
    50 OT DIIS     0.15E+00   11.7     0.00000940     -1527.5802455341 -1.07E-03

  Leaving inner SCF loop after reaching    50 steps.


  Electronic density on regular grids:      -1046.9999994768        0.0000005232
  Core density on regular grids:             1049.9999999271       -0.0000000729
  Total charge density on r-space grids:        3.0000004502
  Total charge density g-space grids:           3.0000004502

  Overlap energy of the core charge distribution:               0.00009108160821
  Self energy of the core charge distribution:              -3603.95462265793367
  Core Hamiltonian energy:                                   1131.15006590799976
  Hartree energy:                                            1410.24604929812176
  Exchange-correlation energy:                               -465.02182916386289

  Total energy:                                             -1527.58024553406676

  outer SCF iter =    4 RMS gradient =   0.94E-05 energy =      -1527.5802455341

  ----------------------------------- OT ---------------------------------------
  Minimizer      : DIIS                : direct inversion
                                         in the iterative subspace
                                         using   7 DIIS vectors
                                         safer DIIS on
  Preconditioner : FULL_KINETIC        : inversion of T + eS
  Precond_solver : DEFAULT
  stepsize       :    0.15000000                  energy_gap     :    0.20000000
  eps_taylor     :   0.10000E-15                  max_taylor     :             4
  ----------------------------------- OT ---------------------------------------

  Step     Update method      Time    Convergence         Total energy    Change
  ------------------------------------------------------------------------------
     1 OT DIIS     0.15E+00   23.6     0.00001662     -1527.5814334248 -1.19E-03
     2 OT DIIS     0.15E+00   11.4     0.00001569     -1527.5815894798 -1.56E-04
     3 OT DIIS     0.15E+00   11.6     0.00001332     -1527.5822775130 -6.88E-04
     4 OT DIIS     0.15E+00   11.3     0.00001263     -1527.5828210965 -5.44E-04
     5 OT DIIS     0.15E+00   11.4     0.00001187     -1527.5836987340 -8.78E-04
     6 OT DIIS     0.15E+00   11.3     0.00001120     -1527.5846323530 -9.34E-04
     7 OT DIIS     0.15E+00   11.5     0.00001023     -1527.5859172277 -1.28E-03
     8 OT DIIS     0.15E+00   11.4     0.00000906     -1527.5874244020 -1.51E-03
     9 OT DIIS     0.15E+00   11.4     0.00000819     -1527.5884321920 -1.01E-03
    10 OT DIIS     0.15E+00   11.1     0.00000752     -1527.5891686740 -7.36E-04
    11 OT DIIS     0.15E+00   11.1     0.00000701     -1527.5896264437 -4.58E-04
    12 OT DIIS     0.15E+00   11.0     0.00000666     -1527.5899786712 -3.52E-04
    13 OT DIIS     0.15E+00   11.1     0.00000623     -1527.5903701175 -3.91E-04
    14 OT DIIS     0.15E+00   11.2     0.00000573     -1527.5908041592 -4.34E-04
    15 OT DIIS     0.15E+00   11.1     0.00000539     -1527.5911114010 -3.07E-04
    16 OT DIIS     0.15E+00   11.2     0.00000508     -1527.5913586411 -2.47E-04
    17 OT DIIS     0.15E+00   11.3     0.00000466     -1527.5917043035 -3.46E-04
    18 OT DIIS     0.15E+00   11.5     0.00000439     -1527.5919477957 -2.43E-04
    19 OT DIIS     0.15E+00   11.1     0.00000407     -1527.5922071922 -2.59E-04
    20 OT DIIS     0.15E+00   11.3     0.00000383     -1527.5923828849 -1.76E-04
    21 OT DIIS     0.15E+00   11.2     0.00000358     -1527.5925557412 -1.73E-04
    22 OT DIIS     0.15E+00   11.2     0.00000335     -1527.5927257318 -1.70E-04
    23 OT DIIS     0.15E+00   11.4     0.00000317     -1527.5928662616 -1.41E-04
    24 OT DIIS     0.15E+00   12.1     0.00000303     -1527.5929802719 -1.14E-04
    25 OT DIIS     0.15E+00   11.2     0.00000288     -1527.5930966814 -1.16E-04
    26 OT DIIS     0.15E+00   11.4     0.00000277     -1527.5931828714 -8.62E-05
    27 OT DIIS     0.15E+00   11.3     0.00000268     -1527.5932464230 -6.36E-05
    28 OT DIIS     0.15E+00   11.2     0.00000261     -1527.5933038902 -5.75E-05
    29 OT DIIS     0.15E+00   11.2     0.00000252     -1527.5933620484 -5.82E-05
    30 OT DIIS     0.15E+00   11.1     0.00000243     -1527.5934258592 -6.38E-05
    31 OT DIIS     0.15E+00   11.0     0.00000234     -1527.5934871568 -6.13E-05
    32 OT DIIS     0.15E+00   11.0     0.00000225     -1527.5935443915 -5.72E-05
    33 OT DIIS     0.15E+00   11.1     0.00000218     -1527.5935970119 -5.26E-05
    34 OT DIIS     0.15E+00   11.1     0.00000213     -1527.5936388643 -4.19E-05
    35 OT DIIS     0.15E+00   11.1     0.00000209     -1527.5936752110 -3.63E-05
    36 OT DIIS     0.15E+00   11.1     0.00000203     -1527.5937206003 -4.54E-05
    37 OT DIIS     0.15E+00   11.2     0.00000199     -1527.5937626036 -4.20E-05
    38 OT DIIS     0.15E+00   11.1     0.00000194     -1527.5938100072 -4.74E-05
    39 OT DIIS     0.15E+00   11.1     0.00000189     -1527.5938573912 -4.74E-05
    40 OT DIIS     0.15E+00   11.1     0.00000185     -1527.5939001936 -4.28E-05
    41 OT DIIS     0.15E+00   11.1     0.00000181     -1527.5939403053 -4.01E-05
    42 OT DIIS     0.15E+00   11.1     0.00000178     -1527.5939726859 -3.24E-05
    43 OT DIIS     0.15E+00   11.0     0.00000175     -1527.5939989159 -2.62E-05
    44 OT DIIS     0.15E+00   11.2     0.00000171     -1527.5940350136 -3.61E-05
    45 OT DIIS     0.15E+00   11.1     0.00000168     -1527.5940714038 -3.64E-05
    46 OT DIIS     0.15E+00   11.1     0.00000164     -1527.5941121103 -4.07E-05
    47 OT DIIS     0.15E+00   11.1     0.00000161     -1527.5941497743 -3.77E-05
    48 OT DIIS     0.15E+00   11.1     0.00000158     -1527.5941817394 -3.20E-05
    49 OT DIIS     0.15E+00   11.1     0.00000156     -1527.5942099065 -2.82E-05
    50 OT DIIS     0.15E+00   11.1     0.00000154     -1527.5942366340 -2.67E-05

  Leaving inner SCF loop after reaching    50 steps.


  Electronic density on regular grids:      -1046.9999999835        0.0000000165
  Core density on regular grids:             1049.9999999271       -0.0000000729
  Total charge density on r-space grids:        2.9999999436
  Total charge density g-space grids:           2.9999999436

  Overlap energy of the core charge distribution:               0.00009108160821
  Self energy of the core charge distribution:              -3603.95462265793367
  Core Hamiltonian energy:                                   1131.13712438566313
  Hartree energy:                                            1410.24939310647096
  Exchange-correlation energy:                               -465.02622254980986

  Total energy:                                             -1527.59423663400116

  outer SCF iter =    5 RMS gradient =   0.15E-05 energy =      -1527.5942366340

  ----------------------------------- OT ---------------------------------------
  Minimizer      : DIIS                : direct inversion
                                         in the iterative subspace
                                         using   7 DIIS vectors
                                         safer DIIS on
  Preconditioner : FULL_KINETIC        : inversion of T + eS
  Precond_solver : DEFAULT
  stepsize       :    0.15000000                  energy_gap     :    0.20000000
  eps_taylor     :   0.10000E-15                  max_taylor     :             4
  ----------------------------------- OT ---------------------------------------

  Step     Update method      Time    Convergence         Total energy    Change
  ------------------------------------------------------------------------------
     1 OT DIIS     0.15E+00   22.6     0.00000167     -1527.5942632011 -2.66E-05
     2 OT DIIS     0.15E+00   11.1     0.00000165     -1527.5942648088 -1.61E-06
     3 OT DIIS     0.15E+00   11.0     0.00000156     -1527.5942755731 -1.08E-05
     4 OT DIIS     0.15E+00   11.0     0.00000154     -1527.5942820216 -6.45E-06
     5 OT DIIS     0.15E+00   11.0     0.00000152     -1527.5942931263 -1.11E-05
     6 OT DIIS     0.15E+00   11.0     0.00000149     -1527.5943114324 -1.83E-05
     7 OT DIIS     0.15E+00   11.2     0.00000145     -1527.5943414619 -3.00E-05
     8 OT DIIS     0.15E+00   11.0     0.00000137     -1527.5944052872 -6.38E-05
     9 OT DIIS     0.15E+00   11.2     0.00000134     -1527.5944295027 -2.42E-05
    10 OT DIIS     0.15E+00   11.1     0.00000125     -1527.5944860334 -5.65E-05
    11 OT DIIS     0.15E+00   11.0     0.00000121     -1527.5945206663 -3.46E-05
    12 OT DIIS     0.15E+00   11.1     0.00000118     -1527.5945402515 -1.96E-05
    13 OT DIIS     0.15E+00   11.2     0.00000116     -1527.5945544420 -1.42E-05
    14 OT DIIS     0.15E+00   11.3     0.00000114     -1527.5945715708 -1.71E-05
    15 OT DIIS     0.15E+00   12.1     0.00000112     -1527.5945882100 -1.66E-05
    16 OT DIIS     0.15E+00   12.3     0.00000109     -1527.5946126905 -2.45E-05
    17 OT DIIS     0.15E+00   11.3     0.00000106     -1527.5946436126 -3.09E-05
    18 OT DIIS     0.15E+00   11.5     0.00000104     -1527.5946633525 -1.97E-05
    19 OT DIIS     0.15E+00   11.3     0.00000102     -1527.5946867661 -2.34E-05
    20 OT DIIS     0.15E+00   11.4     0.00000100     -1527.5947021487 -1.54E-05
    21 OT DIIS     0.15E+00   11.2     0.00000097     -1527.5947200277 -1.79E-05
    22 OT DIIS     0.15E+00   11.2     0.00000095     -1527.5947336982 -1.37E-05
    23 OT DIIS     0.15E+00   11.2     0.00000093     -1527.5947489398 -1.52E-05
    24 OT DIIS     0.15E+00   11.2     0.00000091     -1527.5947643439 -1.54E-05
    25 OT DIIS     0.15E+00   11.1     0.00000088     -1527.5947918682 -2.75E-05
    26 OT DIIS     0.15E+00   11.4     0.00000086     -1527.5948042606 -1.24E-05
    27 OT DIIS     0.15E+00   11.1     0.00000085     -1527.5948191037 -1.48E-05
    28 OT DIIS     0.15E+00   11.1     0.00000083     -1527.5948320248 -1.29E-05
    29 OT DIIS     0.15E+00   11.3     0.00000082     -1527.5948413024 -9.28E-06
    30 OT DIIS     0.15E+00   11.3     0.00000080     -1527.5948552602 -1.40E-05
    31 OT DIIS     0.15E+00   10.9     0.00000078     -1527.5948677674 -1.25E-05
    32 OT DIIS     0.15E+00   10.9     0.00000077     -1527.5948816220 -1.39E-05
    33 OT DIIS     0.15E+00   10.8     0.00000075     -1527.5948958179 -1.42E-05
    34 OT DIIS     0.15E+00   10.9     0.00000074     -1527.5949035812 -7.76E-06
    35 OT DIIS     0.15E+00   10.9     0.00000072     -1527.5949109114 -7.33E-06
    36 OT DIIS     0.15E+00   10.9     0.00000071     -1527.5949239950 -1.31E-05
    37 OT DIIS     0.15E+00   10.9     0.00000069     -1527.5949386788 -1.47E-05
    38 OT DIIS     0.15E+00   11.0     0.00000068     -1527.5949519716 -1.33E-05
    39 OT DIIS     0.15E+00   10.9     0.00000067     -1527.5949617785 -9.81E-06
    40 OT DIIS     0.15E+00   10.9     0.00000066     -1527.5949678769 -6.10E-06
    41 OT DIIS     0.15E+00   10.8     0.00000065     -1527.5949746834 -6.81E-06
    42 OT DIIS     0.15E+00   10.9     0.00000063     -1527.5949861905 -1.15E-05
    43 OT DIIS     0.15E+00   10.8     0.00000062     -1527.5949991440 -1.30E-05
    44 OT DIIS     0.15E+00   10.8     0.00000061     -1527.5950053150 -6.17E-06
    45 OT DIIS     0.15E+00   10.9     0.00000060     -1527.5950155446 -1.02E-05
    46 OT DIIS     0.15E+00   10.9     0.00000059     -1527.5950198450 -4.30E-06
    47 OT DIIS     0.15E+00   10.9     0.00000059     -1527.5950256427 -5.80E-06
    48 OT DIIS     0.15E+00   10.8     0.00000058     -1527.5950341309 -8.49E-06
    49 OT DIIS     0.15E+00   10.9     0.00000057     -1527.5950412405 -7.11E-06
    50 OT DIIS     0.15E+00   10.9     0.00000057     -1527.5950513038 -1.01E-05

  Leaving inner SCF loop after reaching    50 steps.


  Electronic density on regular grids:      -1047.0000008990       -0.0000008990
  Core density on regular grids:             1049.9999999271       -0.0000000729
  Total charge density on r-space grids:        2.9999990280
  Total charge density g-space grids:           2.9999990280

  Overlap energy of the core charge distribution:               0.00009108160821
  Self energy of the core charge distribution:              -3603.95462265793367
  Core Hamiltonian energy:                                   1131.13624595397641
  Hartree energy:                                            1410.25014512558528
  Exchange-correlation energy:                               -465.02691080707683

  Total energy:                                             -1527.59505130384059

  outer SCF iter =    6 RMS gradient =   0.57E-06 energy =      -1527.5950513038

  ----------------------------------- OT ---------------------------------------
  Minimizer      : DIIS                : direct inversion
                                         in the iterative subspace
                                         using   7 DIIS vectors
                                         safer DIIS on
  Preconditioner : FULL_KINETIC        : inversion of T + eS
  Precond_solver : DEFAULT
  stepsize       :    0.15000000                  energy_gap     :    0.20000000
  eps_taylor     :   0.10000E-15                  max_taylor     :             4
  ----------------------------------- OT ---------------------------------------

  Step     Update method      Time    Convergence         Total energy    Change
  ------------------------------------------------------------------------------
     1 OT DIIS     0.15E+00   22.3     0.00000057     -1527.5950595745 -8.27E-06
     2 OT DIIS     0.15E+00   10.8     0.00000057     -1527.5950595098  6.48E-08
     3 OT DIIS     0.15E+00   10.8     0.00000056     -1527.5950607143 -1.20E-06
     4 OT DIIS     0.15E+00   10.8     0.00000055     -1527.5950623450 -1.63E-06
     5 OT DIIS     0.15E+00   10.8     0.00000054     -1527.5950646690 -2.32E-06
     6 OT DIIS     0.15E+00   10.8     0.00000053     -1527.5950684952 -3.83E-06
     7 OT DIIS     0.15E+00   10.8     0.00000052     -1527.5950733278 -4.83E-06
     8 OT DIIS     0.15E+00   10.8     0.00000052     -1527.5950774157 -4.09E-06
     9 OT DIIS     0.15E+00   10.9     0.00000051     -1527.5950799243 -2.51E-06
    10 OT DIIS     0.15E+00   10.9     0.00000051     -1527.5950837471 -3.82E-06
    11 OT DIIS     0.15E+00   10.8     0.00000050     -1527.5950878631 -4.12E-06
    12 OT DIIS     0.15E+00   11.0     0.00000050     -1527.5950901167 -2.25E-06
    13 OT DIIS     0.15E+00   10.8     0.00000050     -1527.5950939443 -3.83E-06

  *** SCF run converged in    13 steps ***


  Electronic density on regular grids:      -1046.9999999783        0.0000000217
  Core density on regular grids:             1049.9999999271       -0.0000000729
  Total charge density on r-space grids:        2.9999999487
  Total charge density g-space grids:           2.9999999487

  Overlap energy of the core charge distribution:               0.00009108160821
  Self energy of the core charge distribution:              -3603.95462265793367
  Core Hamiltonian energy:                                   1131.13629954221574
  Hartree energy:                                            1410.25004753095573
  Exchange-correlation energy:                               -465.02690944117325

  Total energy:                                             -1527.59509394432712

  outer SCF iter =    7 RMS gradient =   0.50E-06 energy =      -1527.5950939443
  outer SCF loop converged in   7 iterations or  313 steps


  Integrated absolute spin density  :                               9.4438688736
  Ideal and single determinant S**2 :                    8.750000      10.772836

 ENERGY| Total FORCE_EVAL ( QS ) energy (a.u.):            -1527.595097556434212


 -------------------------------------------------------------------------------
 -                                                                             -
 -                                DBCSR STATISTICS                             -
 -                                                                             -
 -------------------------------------------------------------------------------
 COUNTER                                    TOTAL       BLAS       SMM       ACC
 flops   42 x    9 x    9                   47628       0.0%    100.0%      0.0%
 flops   42 x   14 x   14                  115248       0.0%    100.0%      0.0%
 flops    5 x    9 x    9                 1496880       0.0%    100.0%      0.0%
 flops   13 x    9 x    9                 2653560       0.0%    100.0%      0.0%
 flops    5 x   14 x   14                 3622080       0.0%    100.0%      0.0%
 flops   13 x   14 x   14                 6420960       0.0%    100.0%      0.0%
 flops   42 x   32 x   32                19267584       0.0%    100.0%      0.0%
 flops   42 x    9 x   42                20448288       0.0%    100.0%      0.0%
 flops   42 x   14 x   42                31759056       0.0%    100.0%      0.0%
 flops   42 x   42 x   41                45564120       0.0%    100.0%      0.0%
 flops   42 x   42 x   46                51120720       0.0%    100.0%      0.0%
 flops   41 x   41 x   41               305595714       0.0%    100.0%      0.0%
 flops    5 x    9 x   42               350542080       0.0%    100.0%      0.0%
 flops   42 x    9 x    5               350542080       0.0%    100.0%      0.0%
 flops   42 x   42 x   32               355622400       0.0%    100.0%      0.0%
 flops   42 x    5 x   41               390549600       0.0%    100.0%      0.0%
 flops    5 x   42 x   41               390549600       0.0%    100.0%      0.0%
 flops   42 x    5 x   46               438177600       0.0%    100.0%      0.0%
 flops    5 x   42 x   46               438177600       0.0%    100.0%      0.0%
 flops   46 x   46 x   46               457089856       0.0%    100.0%      0.0%
 flops    5 x   14 x   42               544440960       0.0%    100.0%      0.0%
 flops   42 x   14 x    5               544440960       0.0%    100.0%      0.0%
 flops    5 x   32 x   32               605552640       0.0%    100.0%      0.0%
 flops   42 x   42 x   64               711244800       0.0%    100.0%      0.0%
 flops   13 x    9 x   42               860775552       0.0%    100.0%      0.0%
 flops   42 x    9 x   13               860775552       0.0%    100.0%      0.0%
 flops   13 x   42 x   41               944913060       0.0%    100.0%      0.0%
 flops   42 x   13 x   41               973119420       0.0%    100.0%      0.0%
 flops   13 x   42 x   46              1060146360       0.0%    100.0%      0.0%
 flops   13 x   32 x   32              1073479680       0.0%    100.0%      0.0%
 flops   42 x   13 x   46              1091792520       0.0%    100.0%      0.0%
 flops   32 x   41 x   41              1192568640       0.0%    100.0%      0.0%
 flops   41 x   32 x   41              1192568640       0.0%    100.0%      0.0%
 flops   41 x   41 x   32              1192568640       0.0%    100.0%      0.0%
 flops   13 x   14 x   42              1336905024       0.0%    100.0%      0.0%
 flops   42 x   14 x   13              1336905024       0.0%    100.0%      0.0%
 flops   32 x   46 x   46              1589877760       0.0%    100.0%      0.0%
 flops   46 x   32 x   46              1589877760       0.0%    100.0%      0.0%
 flops   46 x   46 x   32              1589877760       0.0%    100.0%      0.0%
 flops   42 x   32 x   42              2324754432       0.0%    100.0%      0.0%
 flops   41 x   41 x   64              2385137280       0.0%    100.0%      0.0%
 flops   41 x   64 x   41              2385137280       0.0%    100.0%      0.0%
 flops   64 x   41 x   41              2385137280       0.0%    100.0%      0.0%
 flops    5 x    9 x    5              2827868400       0.0%    100.0%      0.0%
 flops   42 x    5 x   32              3048192000       0.0%    100.0%      0.0%
 flops    5 x   42 x   32              3048192000       0.0%    100.0%      0.0%
 flops   46 x   46 x   64              3179755520       0.0%    100.0%      0.0%
 flops   46 x   64 x   46              3179755520       0.0%    100.0%      0.0%
 flops   64 x   46 x   46              3179755520       0.0%    100.0%      0.0%
 flops    5 x    5 x   41              3235853250       0.0%    100.0%      0.0%
 flops    5 x    5 x   46              3630469500       0.0%    100.0%      0.0%
 flops   41 x   41 x  338              4244289660     100.0%      0.0%      0.0%
 flops    5 x   14 x    5              4392075800       0.0%    100.0%      0.0%
 flops   32 x   32 x   41              4653926400       0.0%    100.0%      0.0%
 flops   32 x   41 x   32              4653926400       0.0%    100.0%      0.0%
 flops   41 x   32 x   32              4653926400       0.0%    100.0%      0.0%
 flops  338 x   41 x   41              5287464468     100.0%      0.0%      0.0%
 flops   46 x   46 x  338              5342603760     100.0%      0.0%      0.0%
 flops   32 x   32 x   46              5530009600       0.0%    100.0%      0.0%
 flops   32 x   46 x   32              5530009600       0.0%    100.0%      0.0%
 flops   46 x   32 x   32              5530009600       0.0%    100.0%      0.0%
 flops   42 x    5 x   64              6096384000       0.0%    100.0%      0.0%
 flops    5 x   42 x   64              6096384000       0.0%    100.0%      0.0%
 flops   13 x    9 x    5              6360124680       0.0%    100.0%      0.0%
 flops    5 x    9 x   13              6360124680       0.0%    100.0%      0.0%
 flops  338 x   46 x   46              6655725648     100.0%      0.0%      0.0%
 flops   13 x    5 x   41              7076774250       0.0%    100.0%      0.0%
 flops    5 x   13 x   41              7095242700       0.0%    100.0%      0.0%
 flops   13 x   42 x   32              7374931200       0.0%    100.0%      0.0%
 flops   42 x   13 x   32              7595078400       0.0%    100.0%      0.0%
 flops   13 x    5 x   46              7939795500       0.0%    100.0%      0.0%
 flops    5 x   13 x   46              7960516200       0.0%    100.0%      0.0%
 flops   32 x   41 x   64              9307852800       0.0%    100.0%      0.0%
 flops   32 x   64 x   41              9307852800       0.0%    100.0%      0.0%
 flops   41 x   32 x   64              9307852800       0.0%    100.0%      0.0%
 flops   41 x   64 x   32              9307852800       0.0%    100.0%      0.0%
 flops   64 x   32 x   41              9307852800       0.0%    100.0%      0.0%
 flops   64 x   41 x   32              9307852800       0.0%    100.0%      0.0%
 flops   13 x   14 x    5              9878164660       0.0%    100.0%      0.0%
 flops    5 x   14 x   13              9878164660       0.0%    100.0%      0.0%
 flops   32 x   46 x   64             11060019200       0.0%    100.0%      0.0%
 flops   32 x   64 x   46             11060019200       0.0%    100.0%      0.0%
 flops   46 x   32 x   64             11060019200       0.0%    100.0%      0.0%
 flops   46 x   64 x   32             11060019200       0.0%    100.0%      0.0%
 flops   64 x   32 x   46             11060019200       0.0%    100.0%      0.0%
 flops   64 x   46 x   32             11060019200       0.0%    100.0%      0.0%
 flops   41 x   41 x  336             11251134720     100.0%      0.0%      0.0%
 flops  336 x   41 x   41             14016473856     100.0%      0.0%      0.0%
 flops   46 x   46 x  336             14162641920     100.0%      0.0%      0.0%
 flops   13 x   42 x   64             14749862400       0.0%    100.0%      0.0%
 flops   42 x   13 x   64             15190156800       0.0%    100.0%      0.0%
 flops   32 x   41 x  338             16563081600       0.0%    100.0%      0.0%
 flops   41 x   32 x  338             16563081600       0.0%    100.0%      0.0%
 flops   13 x    9 x   13             17133833808       0.0%    100.0%      0.0%
 flops  336 x   46 x   46             17643580416     100.0%      0.0%      0.0%
 flops   32 x   46 x  338             18582969600       0.0%    100.0%      0.0%
 flops   46 x   32 x  338             18582969600       0.0%    100.0%      0.0%
 flops   64 x   64 x   41             18615705600       0.0%    100.0%      0.0%
 flops   41 x   64 x   64             18615705600       0.0%    100.0%      0.0%
 flops   64 x   41 x   64             18615705600       0.0%    100.0%      0.0%
 flops   13 x   13 x   41             19482200010       0.0%    100.0%      0.0%
 flops  338 x   32 x   41             20634007680       0.0%    100.0%      0.0%
 flops  338 x   41 x   32             20634007680       0.0%    100.0%      0.0%
 flops   13 x   13 x   46             21858078060       0.0%    100.0%      0.0%
 flops   64 x   64 x   46             22120038400       0.0%    100.0%      0.0%
 flops   46 x   64 x   64             22120038400       0.0%    100.0%      0.0%
 flops   64 x   46 x   64             22120038400       0.0%    100.0%      0.0%
 flops  338 x   32 x   46             23150350080       0.0%    100.0%      0.0%
 flops  338 x   46 x   32             23150350080       0.0%    100.0%      0.0%
 flops    5 x    5 x   32             25255440000       0.0%    100.0%      0.0%
 flops   13 x   14 x   13             26611244296       0.0%    100.0%      0.0%
 flops  338 x   41 x  338             26979863040     100.0%      0.0%      0.0%
 flops  338 x   46 x  338             30270090240     100.0%      0.0%      0.0%
 flops   41 x   64 x  338             33126163200     100.0%      0.0%      0.0%
 flops   64 x   41 x  338             33126163200     100.0%      0.0%      0.0%
 flops   46 x   64 x  338             37165939200     100.0%      0.0%      0.0%
 flops   64 x   46 x  338             37165939200     100.0%      0.0%      0.0%
 flops   32 x   32 x   32             37396480000       0.0%    100.0%      0.0%
 flops   42 x   32 x    5             39852933120       0.0%    100.0%      0.0%
 flops    5 x   32 x   42             39852933120       0.0%    100.0%      0.0%
 flops  338 x   41 x   64             41268015360     100.0%      0.0%      0.0%
 flops  338 x   64 x   41             41268015360     100.0%      0.0%      0.0%
 flops   32 x   41 x  336             43906867200       0.0%    100.0%      0.0%
 flops   41 x   32 x  336             43906867200       0.0%    100.0%      0.0%
 flops  338 x   46 x   64             46300700160     100.0%      0.0%      0.0%
 flops  338 x   64 x   46             46300700160     100.0%      0.0%      0.0%
 flops   32 x   46 x  336             49261363200       0.0%    100.0%      0.0%
 flops   46 x   32 x  336             49261363200       0.0%    100.0%      0.0%
 flops    5 x    5 x   64             50510880000       0.0%    100.0%      0.0%
 flops  336 x   32 x   41             54698434560       0.0%    100.0%      0.0%
 flops  336 x   41 x   32             54698434560       0.0%    100.0%      0.0%
 flops   13 x    5 x   32             55233360000       0.0%    100.0%      0.0%
 flops    5 x   13 x   32             55377504000       0.0%    100.0%      0.0%
 flops  336 x   32 x   46             61368975360       0.0%    100.0%      0.0%
 flops  336 x   46 x   32             61368975360       0.0%    100.0%      0.0%
 flops  336 x   41 x  338             71520583680     100.0%      0.0%      0.0%
 flops  338 x   41 x  336             71520583680     100.0%      0.0%      0.0%
 flops   32 x   32 x   64             74792960000       0.0%    100.0%      0.0%
 flops   32 x   64 x   32             74792960000       0.0%    100.0%      0.0%
 flops   64 x   32 x   32             74792960000       0.0%    100.0%      0.0%
 flops  336 x   46 x  338             80242606080     100.0%      0.0%      0.0%
 flops  338 x   46 x  336             80242606080     100.0%      0.0%      0.0%
 flops   41 x   64 x  336             87813734400     100.0%      0.0%      0.0%
 flops   64 x   41 x  336             87813734400     100.0%      0.0%      0.0%
 flops   42 x   32 x   13             97861091328       0.0%    100.0%      0.0%
 flops   13 x   32 x   42             97861091328       0.0%    100.0%      0.0%
 flops   46 x   64 x  336             98522726400     100.0%      0.0%      0.0%
 flops   64 x   46 x  336             98522726400     100.0%      0.0%      0.0%
 flops  336 x   64 x   41            109396869120     100.0%      0.0%      0.0%
 flops  336 x   41 x   64            109396869120     100.0%      0.0%      0.0%
 flops   13 x    5 x   64            110466720000       0.0%    100.0%      0.0%
 flops    5 x   13 x   64            110755008000       0.0%    100.0%      0.0%
 flops  336 x   64 x   46            122737950720     100.0%      0.0%      0.0%
 flops  336 x   46 x   64            122737950720     100.0%      0.0%      0.0%
 flops   32 x   32 x  338            129272832000       0.0%    100.0%      0.0%
 flops   64 x   64 x   32            149585920000       0.0%    100.0%      0.0%
 flops   32 x   64 x   64            149585920000       0.0%    100.0%      0.0%
 flops   64 x   32 x   64            149585920000       0.0%    100.0%      0.0%
 flops   13 x   13 x   32            152056195200       0.0%    100.0%      0.0%
 flops  338 x   32 x   32            161045913600       0.0%    100.0%      0.0%
 flops  336 x   41 x  336            189593026560     100.0%      0.0%      0.0%
 flops  338 x   32 x  338            210574540800     100.0%      0.0%      0.0%
 flops  336 x   46 x  336            212714127360     100.0%      0.0%      0.0%
 flops   32 x   64 x  338            258545664000     100.0%      0.0%      0.0%
 flops   64 x   32 x  338            258545664000     100.0%      0.0%      0.0%
 flops   64 x   64 x   64            299171840000       0.0%    100.0%      0.0%
 flops   13 x   13 x   64            304112390400       0.0%    100.0%      0.0%
 flops    5 x   32 x    5            321498777600       0.0%    100.0%      0.0%
 flops  338 x   32 x   64            322091827200     100.0%      0.0%      0.0%
 flops  338 x   64 x   32            322091827200     100.0%      0.0%      0.0%
 flops   32 x   32 x  336            342687744000       0.0%    100.0%      0.0%
 flops  338 x   64 x  338            421149081600     100.0%      0.0%      0.0%
 flops  336 x   32 x   32            426914611200       0.0%    100.0%      0.0%
 flops   64 x   64 x  338            517091328000     100.0%      0.0%      0.0%
 flops  336 x   32 x  338            558209433600     100.0%      0.0%      0.0%
 flops  338 x   32 x  336            558209433600     100.0%      0.0%      0.0%
 flops  338 x   64 x   64            644183654400     100.0%      0.0%      0.0%
 flops   32 x   64 x  336            685375488000     100.0%      0.0%      0.0%
 flops   64 x   32 x  336            685375488000     100.0%      0.0%      0.0%
 flops   13 x   32 x    5            723079019520       0.0%    100.0%      0.0%
 flops    5 x   32 x   13            723079019520       0.0%    100.0%      0.0%
 flops  336 x   64 x   32            853829222400     100.0%      0.0%      0.0%
 flops  336 x   32 x   64            853829222400     100.0%      0.0%      0.0%
 flops  336 x   64 x  338           1116418867200     100.0%      0.0%      0.0%
 flops  338 x   64 x  336           1116418867200     100.0%      0.0%      0.0%
 flops   64 x   64 x  336           1370750976000     100.0%      0.0%      0.0%
 flops  336 x   32 x  336           1479750451200     100.0%      0.0%      0.0%
 flops  336 x   64 x   64           1707658444800     100.0%      0.0%      0.0%
 flops   13 x   32 x   13           1947935987712       0.0%    100.0%      0.0%
 flops  336 x   64 x  336           2959500902400     100.0%      0.0%      0.0%
 flops total                        26.937555E+12      70.1%     29.9%      0.0%
 flops max/rank                    339.073236E+09      73.2%     26.8%      0.0%
 matmuls inhomo. stacks                         0       0.0%      0.0%      0.0%
 matmuls total                          927059410       0.7%     99.3%      0.0%
 number of processed stacks              26182797      23.5%     76.5%      0.0%
 average stack size                                     1.0      46.0       0.0
 marketing flops                    49.404719E+12
 -------------------------------------------------------------------------------
 # multiplications                          12742
 max memory usage/rank             774.590464E+06
 # max total images/rank                        1
 # MPI messages exchanged                30835640
 # MPI messages filtered                        0
 MPI messages size (elements):
  total size                       378.878755E+09
  min size                           0.000000E+00
  max size                         114.244000E+03
  average size                      12.287040E+03
 MPI breakdown and total messages size (bytes):
             size <=      128               49280                        0
       128 < size <=     8192             3058700              25056870400
      8192 < size <=    32768            11743560             243199183360
     32768 < size <=   131072             7446780             680009422080
    131072 < size <=  4194304             8537320            2082969540000
   4194304 < size <= 16777216                   0                        0
  16777216 < size                               0                        0
 -------------------------------------------------------------------------------

 MEMORY| Estimated peak process memory [MiB]                                 741

 -------------------------------------------------------------------------------
 -                                                                             -
 -                         MESSAGE PASSING PERFORMANCE                         -
 -                                                                             -
 -------------------------------------------------------------------------------

 ROUTINE             CALLS  TOT TIME [s]  AVE VOLUME [Bytes]  PERFORMANCE [MB/s]
 MP_Group                4         0.000
 MP_Bcast            11925         0.106             177413.            19901.49
 MP_Allreduce        60960        86.317                189.                0.13
 MP_Sync               331         0.012
 MP_Alltoall         50223       632.755            8648031.              686.41
 MP_ISendRecv       150720         0.359             460800.           193510.76
 MP_Wait           1521140       523.915
 MP_comm_split         328         0.353
 MP_ISend           598302         3.858             166212.            25776.56
 MP_IRecv           598302         0.353             165128.           279550.50
 MP_Recv               512         0.212             947712.             2291.76
 MP_Memory          518292         0.135
 -------------------------------------------------------------------------------


 -------------------------------------------------------------------------------
 -                                                                             -
 -                           R E F E R E N C E S                               -
 -                                                                             -
 -------------------------------------------------------------------------------
 
 CP2K version 4.1, the CP2K developers group (2016).
 CP2K is freely available from https://www.cp2k.org/ .

 Schuett, Ole; Messmer, Peter; Hutter, Juerg; VandeVondele, Joost. 
 Electronic Structure Calculations on Graphics Processing Units, John Wiley & Sons, Ltd, 173-190 (2016). 
 GPU-Accelerated Sparse Matrix-Matrix Multiplication for Linear Scaling Density Functional Theory.
 http://dx.doi.org/10.1002/9781118670712.ch8


 Borstnik, U; VandeVondele, J; Weber, V; Hutter, J. 
 PARALLEL COMPUTING, 40 (5-6), 47-58 (2014). 
 Sparse matrix multiplication: The distributed block-compressed sparse
 row library.
 http://dx.doi.org/10.1016/j.parco.2014.03.012


 Hutter, J; Iannuzzi, M; Schiffmann, F; VandeVondele, J. 
 WILEY INTERDISCIPLINARY REVIEWS-COMPUTATIONAL MOLECULAR SCIENCE, 4 (1), 15-25 (2014). 
 CP2K: atomistic simulations of condensed matter systems.
 http://dx.doi.org/10.1002/wcms.1159


 VandeVondele, J; Hutter, J. 
 JOURNAL OF CHEMICAL PHYSICS, 127 (11), 114105 (2007). 
 Gaussian basis sets for accurate calculations on molecular systems in
 gas and condensed phases.
 http://dx.doi.org/10.1063/1.2770708


 Krack, M. 
 THEORETICAL CHEMISTRY ACCOUNTS, 114 (1-3), 145-152 (2005). 
 Pseudopotentials for H to Kr optimized for gradient-corrected
 exchange-correlation functionals.
 http://dx.doi.org/10.1007/s00214-005-0655-y


 VandeVondele, J; Krack, M; Mohamed, F; Parrinello, M; Chassaing, T;
 Hutter, J. COMPUTER PHYSICS COMMUNICATIONS, 167 (2), 103-128 (2005). 
 QUICKSTEP: Fast and accurate density functional calculations using a
 mixed Gaussian and plane waves approach.
 http://dx.doi.org/10.1016/j.cpc.2004.12.014


 Frigo, M; Johnson, SG. 
 PROCEEDINGS OF THE IEEE, 93 (2), 216-231 (2005). 
 The design and implementation of FFTW3.
 http://dx.doi.org/10.1109/JPROC.2004.840301


 VandeVondele, J; Hutter, J. 
 JOURNAL OF CHEMICAL PHYSICS, 118 (10), 4365-4369 (2003). 
 An efficient orbital transformation method for electronic structure
 calculations.
 http://dx.doi.org/10.1063/1.1543154


 Hartwigsen, C; Goedecker, S; Hutter, J. 
 PHYSICAL REVIEW B, 58 (7), 3641-3662 (1998). 
 Relativistic separable dual-space Gaussian pseudopotentials from H to Rn.
 http://dx.doi.org/10.1103/PhysRevB.58.3641


 Lippert, G; Hutter, J; Parrinello, M. 
 MOLECULAR PHYSICS, 92 (3), 477-487 (1997). 
 A hybrid Gaussian and plane wave density functional scheme.
 http://dx.doi.org/10.1080/002689797170220


 Perdew, JP; Burke, K; Ernzerhof, M. 
 PHYSICAL REVIEW LETTERS, 77 (18), 3865-3868 (1996). 
 Generalized gradient approximation made simple.
 http://dx.doi.org/10.1103/PhysRevLett.77.3865


 Goedecker, S; Teter, M; Hutter, J. 
 PHYSICAL REVIEW B, 54 (3), 1703-1710 (1996). 
 Separable dual-space Gaussian pseudopotentials.
 http://dx.doi.org/10.1103/PhysRevB.54.1703


 -------------------------------------------------------------------------------
 -                                                                             -
 -                                T I M I N G                                  -
 -                                                                             -
 -------------------------------------------------------------------------------
 SUBROUTINE                       CALLS  ASD         SELF TIME        TOTAL TIME
                                MAXIMUM       AVERAGE  MAXIMUM  AVERAGE  MAXIMUM
 CP2K                                 1  1.0    0.034    0.059 3596.996 3596.997
 qs_forces                            1  2.0    0.001    0.005 3586.651 3586.654
 qs_energies                          1  3.0    0.000    0.000 3574.453 3574.455
 scf_env_do_scf                       1  4.0    0.004    0.008 3568.556 3568.560
 scf_env_do_scf_inner_loop          313  5.0    0.023    0.032 3510.144 3510.243
 rebuild_ks_matrix                  314  7.0    0.003    0.015 2465.719 2466.052
 qs_ks_build_kohn_sham_matrix       314  8.0    0.107    0.135 2465.716 2466.050
 qs_ks_update_qs_env                320  6.0    0.016    0.027 2457.429 2457.763
 pw_transfer                       9735 10.7    1.387    1.656 2032.521 2177.861
 fft_wrap_pw1pw2                   9107 11.8    0.181    0.208 2018.726 2163.785
 fft_wrap_pw1pw2_250               6595 12.9  142.689  184.338 1945.188 2069.987
 fft3d_ps                          9107 13.8  880.540  975.139 1596.738 1772.353
 qs_vxc_create                      314  9.0    0.014    0.019 1650.057 1663.671
 xc_vxc_pw_create                   314 10.0   22.246   36.781 1650.043 1663.660
 qs_rho_update_rho                  314  6.0    0.006    0.020  876.793  877.015
 calculate_rho_elec                 628  7.0   31.726   38.636  876.787  877.011
 mp_alltoall_z22v                  9107 15.8  539.794  875.517  539.794  875.517
 xc_rho_set_and_dset_create         314 11.0   16.424   23.052  776.544  835.920
 density_rs2pw                      628  8.0    0.033    0.038  771.711  790.682
 rs_pw_transfer                    3770 10.5    0.109    0.127  765.472  781.118
 sum_up_and_integrate               314  9.0    6.080    7.992  646.133  646.211
 integrate_v_rspace                 628 10.0   21.822   28.235  640.049  642.195
 potential_pw2rs                    628 11.0    0.171    0.236  605.598  608.872
 x_to_yz                           4710 15.3  115.854  130.469  368.536  528.273
 yz_to_x                           4397 14.3   60.214   72.025  347.326  507.598
 mp_waitall_1                   1483430 14.2  286.530  350.678  286.530  350.678
 mp_waitany                       37710 12.5  260.124  346.809  260.124  346.809
 qs_scf_new_mos                     313  6.0    0.003    0.008  233.041  233.572
 qs_scf_loop_do_ot                  313  7.0    0.001    0.003  233.038  233.568
 rs_pw_transfer_PW2RS_250           629 13.0  102.201  123.033  207.979  228.801
 ot_scf_mini                        313  8.0    0.018    0.025  224.378  224.958
 rs_pw_transfer_RS2PW_250           629 10.0   97.780  130.304  204.304  222.094
 dbcsr_multiply_generic           12742 11.1    0.288    0.375  203.313  208.410
 pw_scatter_p                      4710 14.3  147.658  165.536  147.658  165.536
 multiply_cannon                  12742 12.1    0.803    1.221  135.141  148.213
 ot_mini                            313  9.0    0.004    0.005  146.938  147.482
 pw_derive                         3768 11.5  118.252  144.258  118.252  144.258
 pw_gather_p                       4397 13.3  126.953  138.954  126.953  138.954
 xc_functional_eval                 314 12.0    0.007    0.012   70.603  128.381
 pbe_lsd_eval                       314 13.0   70.596  128.375   70.596  128.375
 rs_pw_transfer_PW2RS_30            628 13.0   15.798   21.871  114.728  121.365
 rs_pw_transfer_RS2PW_30            628 10.0   14.460   20.130  106.116  110.563
 rs_pw_transfer_PW2RS_90            628 13.0   20.749   25.089   74.091  109.656
 qs_ot_get_derivative               626 10.0    0.006    0.011   94.389   95.436
 mp_sum_d                         16796 11.7   46.146   91.960   46.146   91.960
 fft_wrap_pw1pw2_90                1256 12.5    3.780    5.023   61.256   90.119
 multiply_cannon_metrocomm3      140162 13.1    0.129    0.143   43.114   87.195
 multiply_cannon_multrec         140162 13.1   55.089   86.354   55.119   86.384
 rs_grid_zero                      3142 10.4   72.178   77.380   72.178   77.380
 pw_copy                           5339 11.7   61.025   76.783   61.025   76.783
 pw_axpy                           6281 10.2   64.570   75.077   64.570   75.077
 rs_pw_transfer_RS2PW_90            628 10.0   13.628   24.587   58.143   74.968
 -------------------------------------------------------------------------------

 The number of warnings for this run is : 1
 
 -------------------------------------------------------------------------------
  **** **** ******  **  PROGRAM ENDED AT                 2023-02-20 22:09:08.244
 ***** ** ***  *** **   PROGRAM RAN ON            node138.pri.kelvin2.alces.netw
 **    ****   ******    PROGRAM RAN BY                                  40265864
 ***** **    ** ** **   PROGRAM PROCESS ID                                 10091
  **** **  *******  **  PROGRAM STOPPED IN /mnt/scratch2/users/40265864/MSc_ML_M
                                           M/ln_replacements/xyz/Gd_L6_O_O_O_O/p
                                           relim_energy/run-6
