     445
 i =        1, E =     -1509.1800597391
  C         0.7434491625        1.6794315619        2.3274980187
  C        -0.0026501421        0.7223601432        1.3286619282
  C         0.7897762748        0.5530360671       -0.0115762911
  C         0.0682833020       -0.4386082197       -0.9937030442
  C         0.9658467580       -0.6496531604       -2.2658643643
  C         0.3131105984       -1.6362811773       -3.3002454477
  C         1.2645052044       -1.8442883072       -4.5369803586
  C         0.6477099535       -2.8626934195       -5.5655652339
  C         1.6064889501       -3.1320720523       -6.7878704897
  C         1.0465989894       -4.3223818909       -7.6610430372
  C         1.7537126827       -4.4125849483       -9.0621807555
  C         1.1722075598       -5.5405672686      -10.0039909178
  O         1.7314101373       -5.1741571396      -11.3696345003
  C         1.0523725546       -6.2411646246      -12.2114213704
  C         1.8951790036       -6.1889063850      -13.5485876329
  O         3.3034383405       -6.5948919654      -13.2014064034
  C         3.9805688252       -6.5375324650      -14.4574091917
  C         3.8806430854       -7.6818867407      -15.3648702992
  C         4.6164442829       -7.5131528094      -16.5873216778
  C         5.3299966547       -6.3057500907      -16.8853260261
  C         5.5143430084       -5.1713222131      -16.0281349046
  C         4.8133497050       -5.3388821062      -14.7664610233
  O         4.9641890348       -4.2427726835      -13.8684879058
  C         6.0006249311       -4.7510251016      -12.9062477652
  C         6.4696585908       -3.4881230539      -12.0703791059
  O         5.2916717494       -2.9667451541      -11.2828274414
  C         4.7249318705       -1.9001494879      -12.1947821907
  C         3.2694639080       -1.6616814376      -11.6345110682
  C         2.2943539836       -1.1599677943      -12.7528758696
  C         0.8323922844       -1.0597949190      -12.1913716731
  C        -0.1755635584       -0.8132047960      -13.3713800926
  C        -1.6321357894       -0.6360244986      -12.8213195737
  C        -2.6664839792       -0.4105614334      -13.9784710110
  C        -4.1012118265       -0.2107928616      -13.3802003408
  C        -5.1411575151        0.1159656988      -14.5045690532
  C        -6.5518005436        0.3845276321      -13.8814054313
  C        -7.5862680450        0.8208811687      -14.9727405314
  C        -9.0069566247        1.1521813429      -14.3705881345
  C         7.4924540393       -4.0120193211      -10.9884897137
  C         6.0246933083       -6.5467460722      -18.1310290137
  N         6.7548211949       -5.5425110505      -18.7010301420
  C         7.4443412220       -5.9278379978      -19.8327701260
  N         7.6985823100       -7.2216724178      -20.3592882249
 Gd         6.5573058746       -9.1710084095      -20.2903138730
  N         5.8252650928       -7.8764632951      -18.5258044365
  C         4.7936784588       -8.4198563155      -17.7332461918
  N         4.5854720871       -9.7810700961      -17.4972152234
  C         5.6913572598      -10.6243600975      -17.5852222649
  C         6.1721405567      -11.2249678687      -16.3216960602
  C         5.4490442637      -11.4755488052      -15.1112582227
  C         6.2500316236      -12.1149960876      -14.0818222237
  O         5.5471484443      -12.6752767435      -12.9850990757
  C         5.5533254922      -11.6266678536      -11.9258184113
  C         4.8391962137      -12.3302728002      -10.6952420314
  O         5.7753022858      -13.1812062964       -9.8774751360
  C         5.8807049006      -14.4471996065      -10.7046517568
  C         6.8382845031      -15.3780468835       -9.8635512299
  C         7.2989244488      -16.6250643867      -10.7027109264
  C         8.4966216270      -17.3892357148      -10.0268062057
  C         9.0736300832      -18.4519001938      -11.0311441382
  C        10.3299473332      -19.1987252995      -10.4599678880
  C        10.9131362596      -20.1761838409      -11.5415584092
  C        12.1441119259      -20.9776740081      -10.9937687576
  C        12.6775534390      -21.9649383321      -12.0901870777
  C        13.8490325445      -22.8323593454      -11.5188824792
  C        14.3483236637      -23.8652770480      -12.5828716924
  C        15.4707080268      -24.7953865555      -11.9982058721
  C         4.4167092264      -11.1612629232       -9.7228578825
  C         7.7276343988      -12.2736842432      -14.1856715387
  C         8.4559168759      -12.0775607320      -15.4439580404
  C         7.5676686613      -11.5471800086      -16.4438859706
  C         7.9348870321      -11.0694603802      -17.7716389200
  N         9.2119784377      -11.2302826071      -18.2268477825
  C         9.5086184088      -10.5248922131      -19.3713594092
  N         8.7918318216       -9.5743393518      -20.1016398974
  C         9.6051513412       -9.2126002898      -21.2156657666
  N         9.6054442854       -7.9892190428      -21.8400000000
  C         8.6723066568       -7.0673579088      -21.4040490809
  C         9.1208743914       -5.6765209260      -21.4037562922
  C         8.3724670345       -4.9671381750      -20.4099836269
  C         8.6864648597       -3.6687729475      -19.8887695236
  C         9.8794693116       -3.1141439352      -20.5123921347
  O        10.2751198520       -1.8546702425      -19.9825242129
  C        11.5042726929       -2.2117023998      -19.1873116939
  C        12.0342153087       -0.8522345099      -18.5559389761
  O        12.7664118573        0.0433813621      -19.5252741853
  C        11.6191161909        0.5359136230      -20.3786342882
  C        12.1602285042        1.7311226569      -21.2474710561
  C        10.9935003426        2.2689092538      -22.1593688588
  C        11.4858315025        2.9028680701      -23.5105395714
  C        10.2339370294        3.1425792086      -24.4264868069
  C        10.5841417558        3.7595491497      -25.8239507414
  C         9.2685249296        3.8357278808      -26.6753874108
  C         9.4763932594        4.5448848023      -28.0556172889
  C         8.0999364578        4.6103732103      -28.8036866887
  C         8.2216813974        5.3946380133      -30.1499826106
  C         6.8166079120        5.5118277615      -30.8297748247
  C         6.8759326483        6.3533065153      -32.1522816864
  C        13.1476639924       -1.2502031824      -17.5061576671
  C        10.5989622688       -3.7901273195      -21.6308312257
  C        10.2348696122       -5.1168337663      -22.1062872053
  O        11.7657489578       -3.2101348960      -22.1917191403
  C        11.3115018736       -2.4600777078      -23.4057382407
  C        12.6538107189       -2.0528344919      -24.1512645506
  O        13.4260481104       -1.0438803776      -23.3397520716
  C        14.3798243192       -1.9717331657      -22.6157652450
  C        15.2793087296       -0.9676423828      -21.8009181428
  C        16.1406963625       -1.6588396430      -20.6837428828
  C        16.4584934482       -0.6629260213      -19.5112942446
  C        17.0678819857       -1.4408791456      -18.2946121353
  C        17.2768410575       -0.5005881261      -17.0555289484
  C        17.5427434735       -1.3672547845      -15.7761514087
  C        18.0664829968       -0.5000013768      -14.5801063632
  C        18.4010811736       -1.4404607356      -13.3698248461
  C        19.3209253469       -0.7207342590      -12.3282931185
  C        19.6697121883       -1.7048651220      -11.1620824991
  C        20.7036803538       -1.0843973978      -10.1569921405
  C        12.1932159877       -1.2648100378      -25.4403265842
  C        10.9168199138       -9.8360597956      -21.0370676315
  C        10.8764050443      -10.5903470329      -19.8257619340
  C        12.0019448017      -11.0481259657      -19.0635310884
  C        13.2552441684      -10.7278403841      -19.7251925518
  C        13.3104602339      -10.1319792744      -21.0930975007
  C        12.1222515091       -9.6358998644      -21.7834191331
  O        14.5497083075       -9.8226931480      -21.7217279696
  C        15.0274820976      -11.1245711845      -22.3028785927
  C        16.4491083549      -10.7824969548      -22.9197788877
  O        17.4617908731      -10.6243150082      -21.8157879050
  C        17.5198183749       -9.1173866278      -21.7191409189
  C        18.7002707264       -8.8491051496      -20.7102974012
  C        18.7312773725       -7.3551895873      -20.2375692242
  C        19.9546655270       -7.0512281979      -19.2991935366
  C        19.7984463971       -5.6090267037      -18.6996879900
  C        21.0148193018       -5.1668615944      -17.8109315155
  C        20.7832939160       -3.6887781699      -17.3324297662
  C        21.9171341007       -3.1708879781      -16.3781104701
  C        21.6908531003       -1.6398244141      -16.1054730916
  C        22.7373893149       -1.0738195554      -15.0834560961
  C        22.5823795792        0.4799967034      -14.9497753726
  C        23.5914983578        1.0781711105      -13.9029632227
  C        16.9153511139      -12.0625182420      -23.7160669605
  O        14.4263327838      -11.0414519969      -18.9774988949
  C        14.8398030118       -9.6908165646      -18.4508218269
  C        15.9528596388       -9.9640125275      -17.3478801873
  O        17.2968151200      -10.4153681331      -17.8529629761
  C        16.9623605090      -11.7997805147      -18.3541886916
  C        18.3271504037      -12.5623107273      -18.5056707011
  C        18.0883116200      -14.0350223580      -19.0245369491
  C        18.9815792484      -14.4070859392      -20.2616120439
  C        18.4415742795      -15.7280680661      -20.9133182143
  C        19.3510960968      -16.2191387263      -22.0916233659
  C        18.6767403159      -17.4445239068      -22.8017068255
  C        19.6114441615      -18.0712483054      -23.8912663566
  C        18.8878535075      -19.2815654123      -24.5766699595
  C        19.8347801644      -19.9803851620      -25.6081757506
  C        19.1101498403      -21.1941686816      -26.2795331971
  C        20.0645274647      -21.9676051083      -27.2507684699
  C        16.2808129683       -8.5745908742      -16.6710922974
  N         6.8646708322      -10.3691147732      -18.3726569063
  O         8.3873979045      -12.4818534322      -12.9474785786
  C         9.3743987033      -13.6052862289      -13.0819250252
  C        10.3871663243      -13.3403036029      -11.8803710038
  O         9.6435925440      -13.3301429429      -10.5742301462
  C         9.5936016697      -11.8436157720      -10.2944823906
  C         8.7089617667      -11.7805198035       -8.9932676728
  C         8.2795235922      -10.3339057966       -8.5637043627
  C         7.4031521871      -10.4008903605       -7.2581166307
  C         6.7124569125       -9.0230574478       -6.9479242423
  C         5.7901646246       -9.1513925441       -5.6814137283
  C         4.9734821894       -7.8369178834       -5.4253082879
  C         4.0649485207       -7.9732430592       -4.1519953555
  C         3.2118227169       -6.6724349003       -3.9515329537
  C         2.3899783996       -6.7347937927       -2.6202930272
  C         1.4864773910       -5.4639798670       -2.4690979892
  C         0.8256752562       -5.4102494372       -1.0473539457
  C        11.3409707918      -14.6014896891      -11.8255652453
  O         4.3793751016       -8.4568413717      -20.6830065346
  O         5.0765514295      -10.9439755319      -20.4200371750
  O         6.2453184508       -8.3117501777      -22.3998413874
  O         7.1879003481      -10.7689533268      -21.8330452251
  C        -0.4364959440       -5.9009213228      -12.6325565468
  H         0.4727564107        1.3534963458        3.4326833284
  H         1.9098938083        1.6083107504        2.1676644235
  H         0.3783802347        2.7910522750        2.1700817219
  H        -0.0934585614       -0.3318476101        1.8450078393
  H        -1.0474292325        1.2116029496        1.0867935087
  H         0.8423468764        1.6130612170       -0.5196373269
  H         1.8385251678        0.1002604330        0.2701484479
  H        -0.0610090505       -1.4720048552       -0.4435110345
  H        -0.9473810819        0.0569864827       -1.3261364343
  H         1.0954052475        0.3996074443       -2.7840385383
  H         1.9798710805       -1.1244013910       -1.9029011821
  H         0.1634326264       -2.6769773015       -2.7699256061
  H        -0.6835381258       -1.1381244858       -3.6843584275
  H         1.3937032749       -0.8005137026       -5.0690443117
  H         2.2727554072       -2.2993099413       -4.1329334057
  H         0.4729970224       -3.8760603280       -4.9924415735
  H        -0.3362546736       -2.3693571482       -5.9864276737
  H         1.6365048366       -2.1570001722       -7.4476593005
  H         2.6537758387       -3.4425636370       -6.3456375267
  H         1.2781681275       -5.3146116196       -7.0718041745
  H        -0.0974599237       -4.1180104913       -7.8408750444
  H         1.5700188606       -3.3954201594       -9.6272510208
  H         2.8944568942       -4.6426071562       -8.8787249653
  H         1.5854100921       -6.5784977503       -9.5654935094
  H        -0.0176174881       -5.4984704845       -9.9054395199
  H         1.0663410583       -7.3741272491      -11.8361044587
  H         1.4176603401       -6.8926182001      -14.3898286349
  H         1.9001314976       -5.0549536946      -13.9335353076
  H         3.2897020411       -8.6844492609      -15.1789221898
  H         6.1376843301       -4.2307309504      -16.3809103696
  H         5.5393151339       -5.5626177098      -12.1606375463
  H         6.9514914875       -5.1916335525      -13.4842199555
  H         7.0097175068       -2.7494941168      -12.8254854653
  H         5.3281697260       -0.8731954302      -12.0482333261
  H         4.6611460346       -2.2084355830      -13.3439658414
  H         2.9126253133       -2.7209313540      -11.2582738129
  H         3.3311684051       -0.8534336667      -10.7801694526
  H         2.6340172909       -0.0780493900      -13.0657723121
  H         2.2994294431       -1.9547842471      -13.6182340629
  H         0.5478380859       -2.0810589841      -11.6801164773
  H         0.7670651567       -0.1290277297      -11.4724566356
  H         0.1200087324        0.1837266104      -13.9241853578
  H        -0.1739573344       -1.7613068619      -14.0692729726
  H        -1.9434309395       -1.6213620693      -12.2571729099
  H        -1.6569606226        0.3235188540      -12.1393512395
  H        -2.3793344761        0.5725708744      -14.5595948063
  H        -2.6900776504       -1.3718449901      -14.6585682807
  H        -4.4322057133       -1.2176136767      -12.8671782848
  H        -4.0694571847        0.7061342522      -12.6425494606
  H        -4.8006512027        1.0989900480      -15.0551391624
  H        -5.2363249704       -0.8207450209      -15.2113955640
  H        -6.9546878226       -0.6132902345      -13.4041927494
  H        -6.4637017572        1.2740273080      -13.1159225719
  H        -7.1497792815        1.7823135003      -15.4995054532
  H        -7.6990516998       -0.0746884184      -15.7316499661
  H        -8.9175266356        1.1487612993      -13.1943946411
  H        -9.3126883835        2.2282255402      -14.7515959447
  H        -9.8147074739        0.3690417596      -14.7357245115
  H         7.5289978851       -5.1895796651      -10.9174382381
  H         8.5699512350       -3.5750718605      -11.2033428621
  H         7.1257200097       -3.5808116067       -9.9447930302
  H         4.2894541204      -11.2904568827      -15.0494850443
  H         6.6648012550      -11.3155418548      -11.6152743113
  H         4.9363696637      -10.6649834252      -12.2877601249
  H         3.8859146996      -12.8438274874      -11.1984790323
  H         4.8465245407      -15.0349236198      -10.8319525686
  H         6.4067628586      -14.2494703743      -11.7546356710
  H         7.7909158024      -14.7397316988       -9.5904381111
  H         6.2353355211      -15.7720636428       -8.9301812183
  H         6.3991371545      -17.3833679707      -10.7621357983
  H         7.6757554000      -16.2447949637      -11.7488389852
  H         9.3521013640      -16.6189651473       -9.7808306962
  H         8.0968237287      -17.9739691373       -9.0843282234
  H         8.2441134084      -19.2647318735      -11.2299612899
  H         9.4145930341      -17.8848345433      -12.0041043175
  H        11.1570196149      -18.4002533479      -10.2058006607
  H         9.9945030755      -19.8436716000       -9.5330766392
  H        10.0757623792      -20.9544180842      -11.8235606578
  H        11.2833050076      -19.5315705633      -12.4545418878
  H        13.0047373831      -20.2140790910      -10.7428999795
  H        11.7911398747      -21.6165154327      -10.0698970568
  H        11.8056557493      -22.6956593195      -12.3925443152
  H        13.1063936065      -21.3338384307      -12.9866611409
  H        14.7582881128      -22.1298216488      -11.2643789536
  H        13.4510714184      -23.4541347444      -10.6029259261
  H        13.4400079496      -24.5450872822      -12.8972195652
  H        14.8107741596      -23.2738315790      -13.4914133785
  H        15.4330166974      -24.7723769710      -10.8198882693
  H        15.2935227180      -25.8981311446      -12.3854530919
  H        16.5272587743      -24.4316353089      -12.3773770361
  H         4.5799459388      -11.6005616438       -8.6356089054
  H         5.0867418542      -10.2003121530       -9.8569229196
  H         3.2707920022      -10.9061396611       -9.8595876733
  H         9.6026294051      -12.2289736324      -15.6931203745
  H         8.0141261708       -3.1494601794      -19.0699863421
  H        11.2089954967       -2.9610822508      -18.2980766337
  H        12.3660714614       -2.6961818601      -19.8574513511
  H        11.0780356153       -0.3979224814      -18.0082524197
  H        11.3055740567       -0.3110775551      -21.1536835412
  H        10.6810575850        0.9472564703      -19.7663341866
  H        12.4726168679        2.6033728995      -20.5185458576
  H        13.0262229170        1.3391228640      -21.9413738639
  H        10.2937125112        1.3674062866      -22.4411089574
  H        10.4302531068        3.1254766578      -21.5779405147
  H        11.9800699156        3.9505833224      -23.2924190221
  H        12.1989989788        2.1386488431      -24.0515981223
  H         9.7289229026        2.0982420468      -24.6243520772
  H         9.5207126399        3.9036865790      -23.8797960955
  H        10.9838823383        4.8560245847      -25.6669801630
  H        11.3413870251        3.0466170056      -26.3764149505
  H         8.9157326963        2.7343054105      -26.8947464916
  H         8.4791221310        4.4651091621      -26.0701678832
  H         9.8414349866        5.6470862357      -27.8613242972
  H        10.2177715878        3.9004418402      -28.7046537280
  H         7.7674976839        3.5112503982      -29.0631069251
  H         7.3344354883        5.1874722194      -28.1211611883
  H         8.5851800539        6.4902290203      -29.9222989451
  H         8.9188118153        4.7954721120      -30.8848596899
  H         6.4492201966        4.4273881980      -31.1088197005
  H         6.0897764269        6.0581378335      -30.0811686331
  H         6.8984178357        5.6282559149      -33.0830427161
  H         5.9030392640        7.0214952973      -32.2198492114
  H         7.8352243868        7.0386970693      -32.1439933815
  H        12.7435225363       -1.1218836581      -16.4024184568
  H        13.5609281564       -2.3439790970      -17.6624250749
  H        14.0362983017       -0.4836807231      -17.6658694108
  H        10.7749648289       -5.7457166152      -22.9440389869
  H        10.6089353496       -3.1281580437      -24.1092189203
  H        10.7285081213       -1.4747150233      -23.0636175356
  H        13.1339066303       -3.0981947995      -24.4635974313
  H        13.8471769843       -2.6804181963      -21.8174984839
  H        15.1176792346       -2.6000926442      -23.3191363475
  H        16.0212904914       -0.4576102736      -22.5619134906
  H        14.5484437923       -0.2056837079      -21.2792783882
  H        15.5228797222       -2.5525921397      -20.2374534880
  H        17.1696045452       -1.9841982307      -21.1571318076
  H        17.2659035511        0.1107613809      -19.8845172557
  H        15.4495236962       -0.1708800768      -19.1636652356
  H        16.3106550567       -2.2849923019      -17.9840022148
  H        18.1278715320       -1.8511072192      -18.6064459501
  H        18.2297485393        0.1653241615      -17.2448363803
  H        16.2908343265        0.1217122057      -16.8938697829
  H        16.5126779661       -1.8368286387      -15.4521948878
  H        18.3728267348       -2.1581540204      -16.0365583576
  H        19.0550205290        0.0420892633      -14.9149343818
  H        17.2065153647        0.2309012336      -14.2405250164
  H        17.3976877810       -1.7196119776      -12.8192791686
  H        18.9914441748       -2.3723050520      -13.7776185373
  H        20.3302133063       -0.4179493409      -12.8511103320
  H        18.7311995570        0.1796809485      -11.8506875903
  H        18.6824341968       -1.9390171208      -10.5640779770
  H        20.1550589298       -2.6712467984      -11.6281449819
  H        20.3492686932       -1.3121922830       -9.0525108147
  H        21.7591223932       -1.5879248707      -10.3173986229
  H        20.7756743755        0.0804431927      -10.3220760320
  H        11.9685057891       -1.9757360232      -26.3561901355
  H        11.2735427283       -0.5558409401      -25.2240347917
  H        13.1240808786       -0.5821928570      -25.7119965383
  H        11.8656682873      -11.6048063199      -18.0306258421
  H        12.0838732675       -9.1210510986      -22.8425572727
  H        15.1551035978      -11.9589831042      -21.4594483341
  H        14.2709993742      -11.4945041853      -23.1536803022
  H        16.2253302275       -9.9015680145      -23.6907073477
  H        17.8128183696       -8.5598392827      -22.7359814685
  H        16.5345641586       -8.6447372819      -21.2402139622
  H        18.5099967787       -9.5295490640      -19.7664528862
  H        19.7168474838       -9.0776455799      -21.2606724424
  H        18.8433425827       -6.6714963508      -21.1892287484
  H        17.7550954368       -7.1497699640      -19.6149438068
  H        19.9580802294       -7.8228542566      -18.4100551235
  H        20.9408861448       -7.0672014057      -19.9437956404
  H        19.7181709648       -4.8489910135      -19.5954009012
  H        18.8452413689       -5.6118134669      -18.0088562990
  H        21.0623576957       -5.8667175417      -16.8646689731
  H        21.9872703925       -5.1988853155      -18.4752035065
  H        20.7846379729       -3.0047179635      -18.2895189703
  H        19.7699849758       -3.6609983423      -16.7348234863
  H        21.8311774739       -3.7431162477      -15.3523786588
  H        22.9555958424       -3.3082571158      -16.9167717168
  H        21.8557448155       -1.0671744379      -17.1211076400
  H        20.6202077066       -1.4946562223      -15.6387900043
  H        22.5229508663       -1.5351507298      -14.0224587905
  H        23.8260338300       -1.2779811687      -15.4834579958
  H        22.8407580289        0.9619976698      -15.9947957809
  H        21.4772814373        0.7134113807      -14.6072057547
  H        23.1647186230        0.8511208113      -12.8211871724
  H        24.6968403046        0.6650255686      -14.0591509115
  H        23.5776522334        2.2569514444      -14.0416861115
  H        17.3190815796      -12.8559708695      -22.9350232122
  H        16.0897281349      -12.5468226900      -24.4068946444
  H        17.8378638921      -11.7232111169      -24.3772026121
  H        15.3032080843       -9.0102961378      -19.3155575982
  H        13.9215810828       -9.1336319860      -17.9200816543
  H        15.4197859819      -10.6891992848      -16.5681748325
  H        16.2825573799      -12.4483552514      -17.6199610884
  H        16.5046792436      -11.7452452282      -19.4541401510
  H        18.9962444522      -11.9909801302      -19.2872113619
  H        18.8065343346      -12.6351837151      -17.4309980933
  H        18.3919219658      -14.7758137624      -18.1592113118
  H        16.9640504038      -14.1414919295      -19.3495868464
  H        18.8917700275      -13.5408494947      -21.0522140552
  H        20.0815596477      -14.6093298483      -19.8905027881
  H        18.4380784842      -16.5732965103      -20.0936436764
  H        17.3753942242      -15.5047428222      -21.3589010801
  H        19.4522210595      -15.3486728937      -22.8779628791
  H        20.3799569273      -16.5787824746      -21.6458578822
  H        18.4666357936      -18.2712087891      -21.9904784502
  H        17.7042753423      -17.0619419245      -23.3438387968
  H        19.8258227605      -17.2575502730      -24.7148249613
  H        20.5802036200      -18.4769300175      -23.3592394378
  H        18.6174578139      -20.0705101894      -23.7462567854
  H        17.9550245864      -18.8708626276      -25.1655876228
  H        20.0943099850      -19.2168418674      -26.4653033018
  H        20.7730530631      -20.4036785643      -25.0382686669
  H        18.7755699714      -21.9439628934      -25.4335014090
  H        18.2069187103      -20.7846360129      -26.9157332207
  H        20.8291183529      -22.6128489571      -26.6255282067
  H        19.4086354491      -22.6888568458      -27.9223821483
  H        20.6389965281      -21.2004179970      -27.9385834989
  H        16.2777296573       -8.6957070699      -15.4945770079
  H        17.3895614706       -8.2981592716      -16.9918133426
  H        15.5599652661       -7.6990300042      -16.9944786925
  H         8.7743483536      -14.6143756040      -12.8517021045
  H         9.9281288323      -13.6620203445      -14.1381032361
  H        11.0143539514      -12.3939476502      -12.2363086924
  H        10.6593780974      -11.3819096787      -10.0019574516
  H         9.0532848581      -11.1800448773      -11.1250919982
  H         7.7345048522      -12.4001392467       -9.2315697216
  H         9.3444524531      -12.2450140109       -8.1158365824
  H         9.2543017268       -9.7197232766       -8.3195829830
  H         7.6170778158       -9.8815113666       -9.4230466651
  H         6.5568192219      -11.2014922300       -7.4218563859
  H         8.1179986231      -10.6478258488       -6.3538696951
  H         7.5483516215       -8.2304639393       -6.7008575069
  H         6.0311667923       -8.7390364851       -7.8643006098
  H         5.0159272569      -10.0177535876       -5.8708514418
  H         6.4721842975       -9.3298022733       -4.7377847222
  H         5.7291789221       -6.9564629754       -5.2240305463
  H         4.2633840433       -7.6533604815       -6.3459583445
  H         3.3231989664       -8.8741966400       -4.3137306654
  H         4.7577973174       -8.1055625373       -3.2083288350
  H         3.9515879481       -5.7609323482       -3.8691105731
  H         2.4474245360       -6.5940449447       -4.8427960119
  H         1.6734140422       -7.6678823713       -2.6611643779
  H         3.1377283837       -6.7479519273       -1.7114671679
  H         2.1599505046       -4.5060082750       -2.5889930487
  H         0.6198877859       -5.5245239271       -3.2635689923
  H         0.6299564335       -6.5043613060       -0.6519083151
  H         1.5344465376       -4.8342108281       -0.3002857783
  H        -0.2005058616       -4.8274588220       -1.1250552041
  H        11.4988556123      -14.7936701723      -10.6652487079
  H        10.8662016146      -15.5706706426      -12.3017630755
  H        12.3957575321      -14.3678516774      -12.3030561924
  H         4.1808961325       -7.4209102236      -20.6691529167
  H         3.5636702599       -9.1139165921      -20.7059901453
  H         4.0362641504      -10.8281835940      -20.2893964396
  H         5.4711984728      -11.9194932497      -20.2837355648
  H         5.2690268315       -8.1428077942      -22.7429601413
  H         7.0958371631       -8.1321748775      -22.9908937654
  H         6.4551823777      -11.4058769471      -22.2353537084
  H         8.1765849513      -10.7416796755      -22.1904407090
  H        -1.0548977676       -5.7654405684      -11.6344949423
  H        -0.4879654593       -4.9004900351      -13.2604051915
  H        -0.9387700961       -6.7756241341      -13.2546478891
     445
 i =        2, E =     -1509.6225643109
  C         0.7507800448        1.6909002847        2.3397120134
  C        -0.0085033418        0.7231124148        1.3400782680
  C         0.7850509057        0.5553084446       -0.0046404227
  C         0.0741445197       -0.4346888716       -0.9964729201
  C         0.9656322836       -0.6566151197       -2.2708580015
  C         0.3133834195       -1.6438325629       -3.3057449665
  C         1.2689560690       -1.8515908186       -4.5395854013
  C         0.6440716358       -2.8671455662       -5.5652442839
  C         1.6061190348       -3.1329359481       -6.7851543911
  C         1.0268690401       -4.3300710393       -7.6352038800
  C         1.7944386011       -4.3259429909       -9.0099305106
  C         1.1900774219       -5.4794823838       -9.8938196034
  O         1.6620519999       -5.2968960047      -11.3402220835
  C         1.0331072137       -6.2725010868      -12.3272735087
  C         1.9269255594       -6.1929972152      -13.6080105115