     165
 i =        1, E =      -782.0972348407
  C         2.6583609442        0.6444248767        0.8389071442
  C         1.7138922717       -0.4357320678        0.2036452091
  C         2.0710563602       -0.8126456355       -1.3013804323
  O         1.0593535382       -0.2057464580       -2.2583879812
  C         1.3920293382        1.1749118775       -2.2892342380
  C         0.7097802996        2.2105515879       -1.5119068160
  C         1.0899324966        3.6192307260       -1.5830459108
  C         2.1440144784        4.1755808819       -2.4336471805
  C         2.7160168204        3.1303964556       -3.2322216506
  C         2.4005163438        1.7294849549       -3.1629045269
  C         3.2789835096        1.0302945353       -4.0945990673
  N         2.9067527779       -0.1792663520       -4.6470116424
  C         3.7097916815       -0.6513186849       -5.6792999549
  C         3.1915905515       -1.6779962816       -6.5897597246
  C         1.8546259056       -2.2031259071       -6.5792065841
  C         1.6913427388       -3.1222745899       -7.7042603071
  C         2.7498725650       -3.5139437459       -8.6345916659
  C         4.1311630553       -2.9877260890       -8.5729280640
  C         4.2506650480       -1.9683727296       -7.5293588456
  C         5.3550835412       -1.0627515396       -7.1833296965
  N         5.0143090844       -0.2773782487       -6.0545658676
 Dy         6.1449614149        1.3242458449       -5.2077043116
  N         4.1023815664        1.9982931538       -4.7792612102
  C         3.8693034366        3.2436664804       -4.1267729107
  N         4.3137706913        4.4989656018       -4.5306349687
  C         5.4727835535        4.5146293373       -5.2884397630
  N         6.4376145368        3.4803068032       -5.4402576950
  C         7.4897936070        3.9979831681       -6.2286541491
  N         8.5067855925        3.3724897069       -6.9466662632
  C         8.3321960702        2.0428347391       -7.3202468991
  N         7.2390708186        1.1914797529       -7.0376063571
  C         7.2862480244        0.0868143468       -7.8943078802
  N         6.4308873931       -0.9813602959       -8.0548588842
  C         8.3266904425        0.2977411024       -8.8882009123
  C         8.9655839132        1.5330223635       -8.5322933097
  C        10.0295995471        2.0928297282       -9.3326142121
  C        10.3406027341        1.2999064197      -10.5270919913
  C         9.6513781211        0.0445039227      -10.8172028132
  C         8.6022136005       -0.5644481851      -10.0004324070
  O        10.5358308389        3.3860111654       -9.0297300397
  C        11.9406815549        3.3703626079       -8.4815599565
  C        11.8610000885        3.1523367329       -6.9124797159
  C        11.4611226275        4.4955126609       -6.2112292167
  C        12.9417538444        2.3132131361       -9.1139059687
  C        13.4826138517        2.8409991474      -10.4895518384
  C         7.2438037831        5.4283418388       -6.5059808880
  C         5.9590979367        5.7456608420       -5.9294955981
  C         5.3647332362        7.0662690816       -6.0211632921
  C         6.2574713876        8.0874380905       -6.5896290457
  C         7.5645618607        7.7094778313       -7.1332095424
  C         8.1082326965        6.3478870803       -7.2011807287
  O         4.0812526023        7.3786455533       -5.4994369073
  C         3.1294218621        7.0228236595       -6.6363343086
  C         1.7687801324        7.3980154134       -5.9486668055
  C         1.4768662223        6.5509892797       -4.6694183755
  C         3.3067779389        7.9474506227       -7.9273298026
  C         4.1117506294        7.2711830311       -9.0983391234
  O         8.1794485240        1.6124614834       -4.5103592176
  C         9.4193077917        1.1034006694       -4.6308224971
  N        10.1908275542        0.9910421663       -3.4528787916
  C         9.5977284243        1.2342436523       -2.1032784885
  C        11.6159087774        0.5788600057       -3.5965332383
  O         5.1178538513        2.1531547959       -7.0230170862
  C         3.9366223652        2.0747338669       -7.6694253579
  N         3.9165082631        2.4518929843       -9.0363941021
  C         5.1740138831        2.8472633731       -9.7374178479
  C         2.6986345544        2.2455601657       -9.8612449645
  N         6.2733722085        1.8341856728       -2.9954738450
  C         5.9691663751        0.7070143603       -2.2354952128
  C         6.1007631006       -0.5878103105       -2.9395246048
  N         6.8279884122       -0.5156033554       -4.1348940766
  C         7.2983917790       -1.6452280164       -4.8092561438
  C         7.1501756453       -2.8967154820       -4.1046454690
  C         6.2821502936       -2.9985352006       -2.9344029189
  C         5.8149516013       -1.8262163538       -2.2430602431
  C         5.8264311489        0.6974458272       -0.7918550680
  C         5.8519893406        2.0046197605       -0.2001451999
  C         6.1578749356        3.1802390717       -1.0036568934
  C         6.3323093934        3.1054526106       -2.4349396566
  O         5.1408178967       -3.2665326606       -9.5964200729
  C         5.9578125312       -4.4559191048       -8.9707682181
  C         5.1535630742       -5.7191174804       -8.4167237384
  C         4.8735925443       -5.6823732505       -6.8739051177
  C         6.8286101102       -4.9699510645      -10.1953018988
  C         7.7971713978       -3.9198553206      -10.8234650741
  C         1.7891293271       -2.3435875248       -1.5049853834
  C         2.0599601015       -2.8219551187       -2.9701923611
  H         2.5559222562        0.5413405036        2.0236592062
  H         3.7753109721        0.4421683649        0.5101173780
  H         2.2873984151        1.7181765887        0.5059162761
  H         1.8174488434       -1.4371038155        0.8354856089
  H         0.5957794567       -0.0356408003        0.2555943873
  H         3.1892986045       -0.4867816622       -1.5216193796
  H        -0.1660529768        1.8315580149       -0.8229292004
  H         0.5135779006        4.4094540108       -0.9226118713
  H         2.5399638295        5.2908229411       -2.5101560459
  H         1.0578218700       -1.8645884386       -5.7664143572
  H         0.6171464258       -3.6064107997       -7.7975973345
  H         2.4893154861       -4.2554979481       -9.5125648470
  H        11.1403447459        1.7637642626      -11.2564472497
  H         9.9627520850       -0.5795037497      -11.7667058677
  H         7.9994879941       -1.5758930220      -10.1536034538
  H        12.2959277641        4.4581314566       -8.7619179331
  H        11.0641508585        2.3254579586       -6.6192176394
  H        12.9651758474        2.8827777257       -6.5696534070
  H        11.5323466890        4.3205002652       -5.0360160230
  H        12.2367049215        5.3452723543       -6.5033058807
  H        10.3501892315        4.7724905633       -6.5104838212
  H        13.8679227446        2.2869159199       -8.3694702544
  H        12.4709701812        1.2371942865       -9.2633319905
  H        13.7610639025        1.9025243538      -11.1610597281
  H        12.6472068911        3.4957352858      -11.0101080066
  H        14.4650974102        3.4868350365      -10.3289301646
  H         5.8477201984        9.2058574340       -6.5532431635
  H         8.2565449257        8.5463268083       -7.5973500080
  H         9.1257608103        5.9764422991       -7.6954260478
  H         3.2362668933        5.8837732866       -6.9550826095
  H         1.8450155972        8.5474868476       -5.6491579559
  H         0.9295021965        7.2107869476       -6.7622654064
  H         1.5303586011        5.4030995030       -4.9461028088
  H         2.2527198678        6.8488951445       -3.8283981894
  H         0.3746020799        6.8585220717       -4.3358232113
  H         2.1953943900        8.0935297778       -8.3287287172
  H         3.8197999270        8.9883748767       -7.6471566452
  H         4.0345772658        6.0898446982       -9.0496125031
  H         3.6453448787        7.6421652226      -10.1316242979
  H         5.2357218778        7.6356540981       -9.0392831413
  H         9.9499825536        0.7861447112       -5.6697516126
  H         9.3927777561        0.1762683257       -1.5811813973
  H        10.3984409982        1.8478974141       -1.4594570289
  H         8.5899213875        1.8495150330       -2.2514668744
  H        12.0726051500        0.4403688542       -2.5052117666
  H        11.6478327218       -0.4570241417       -4.1869769427
  H        12.1945779243        1.4371805224       -4.1913195004
  H         2.8440383055        1.8054075133       -7.2160031645
  H         5.9916750986        3.1374264223       -8.9202589501
  H         5.5839910492        1.9675088551      -10.4355593286
  H         4.9147081471        3.7930395890      -10.4226867254
  H         1.8178312952        2.1092642753       -9.0705629173
  H         2.5411585801        3.2214291351      -10.5304334508
  H         2.8229035074        1.2645917380      -10.5353750085
  H         7.9732455486       -1.4800990033       -5.7798303793
  H         7.6339604568       -3.8516312467       -4.5985770280
  H         6.0505893755       -4.0413784205       -2.4273334446
  H         5.1430847312       -1.8405764131       -1.2720598988
  H         5.6709498722       -0.2955553762       -0.1762643000
  H         5.6766104982        2.0802002449        0.9653469981
  H         6.1942351434        4.2545071840       -0.5177547929
  H         6.6216006647        4.0308131119       -3.1255381907
  H         6.6445915906       -3.9981655504       -8.1148845335
  H         4.1271215107       -5.8233040307       -9.0016600206
  H         5.8602006447       -6.6566690962       -8.6098222456
  H         4.7941228718       -6.8125938163       -6.4841739234
  H         5.7496540519       -5.0957097554       -6.3279924818
  H         3.8519598649       -5.0953684889       -6.7194937289
  H         7.4813512049       -5.8736459072       -9.7743124592
  H         6.1018316769       -5.3912333561      -11.0441200425
  H         8.3380460316       -3.3553394639       -9.9384971791
  H         8.5862650261       -4.5167288878      -11.4882982193
  H         7.1431222180       -3.2083798403      -11.5055936815
  H         2.5215121527       -2.9023196729       -0.7613051960
  H         0.6487276983       -2.5376343464       -1.2293595988
  H         2.0304766206       -4.0134032150       -2.9218659211
  H         1.1826398182       -2.4390557998       -3.6660141380
  H         3.1162711874       -2.4348768075       -3.3329793622
     165
 i =        2, E =      -782.3249374265
  C         2.6683230493        0.6675818483        0.8385764549
  C         1.7236386136       -0.4269463066        0.1984446147
  C         2.0544218111       -0.8577546191       -1.3023917186
  O         1.0237409145       -0.2063102458       -2.2590064129
  C         1.2964748066        1.2198052642       -2.2872379088
  C         0.6414623369        2.2481535177       -1.4430454355
  C         1.0273050323        3.6798872548       -1.5056072035
  C         2.0988382176        4.2002709607       -2.3982385261
  C         2.7487811958        3.1421923680       -3.1453238497
  C         2.4274385364        1.7229134682       -3.0631094165
  C         3.2043244608        1.0379738023       -4.1352223519
  N         2.8539727341       -0.2759815954       -4.5649787617
  C         3.6900302288       -0.6847558053       -5.6530672132
  C         3.1585153965       -1.7292140371       -6.5769867875
  C         1.8127978488       -2.2576844416       -6.5900326993
  C         1.6117712254       -3.2015576616       -7.7196995765
  C         2.6970538914       -3.6060793544       -8.6499732279
  C         4.0418038069       -2.9609908814       -8.6434141647
  C         4.2336089860       -2.0519943124       -7.5126144536
  C         5.3581253427       -1.1143425993       -7.2141014431
  N         5.0201332174       -0.3168870226       -6.0530081783
 Dy         6.1190935673        1.5049644706       -5.1861953797
  N         4.0893319084        2.0004015138       -4.7610141966
  C         3.8052205314        3.2822709798       -4.1952016907
  N         4.2740238232        4.6025549912       -4.4853836653
  C         5.4544034112        4.5924181081       -5.2752696165
  N         6.4785377058        3.5628583730       -5.3576712251
  C         7.5482815201        4.0107154637       -6.2121564300
  N         8.6085380070        3.4203580761       -6.9842448898
  C         8.3630161054        2.0651133394       -7.3522839428
  N         7.2949988259        1.1669030956       -6.9954731592
  C         7.2745200994        0.0735386084       -7.9189127038
  N         6.4776084220       -1.1041827081       -8.0941898517
  C         8.3776939611        0.2622031543       -8.9009070962
  C         9.0708418811        1.4879632977       -8.5290151862
  C        10.0711879000        2.1102268024       -9.3896783995
  C        10.4086820875        1.2783867940      -10.5847108892
  C         9.7213647324        0.0000199070      -10.9098042398
  C         8.6453998121       -0.5711041551      -10.0533720863
  O        10.5271440831        3.4472492689       -9.0612986864
  C        11.9540619254        3.3767758278       -8.4762636658
  C        11.8565247567        3.1799506653       -6.9037765188
  C        11.4375485629        4.5186970944       -6.1882867343
  C        12.9393887885        2.3310283390       -9.1384351370
  C        13.4783898290        2.8349770133      -10.5324112477
  C         7.2831588043        5.4642049761       -6.5144310801
  C         5.9589593764        5.8064438100       -5.9944071250
  C         5.4273601386        7.1727406310       -5.9912707319
  C         6.2436241784        8.2428834626       -6.6503059702
  C         7.5712615898        7.8127519684       -7.1948792505
  C         8.1186598576        6.4171262869       -7.2151612045
  O         4.0951235857        7.4233711692       -5.4782484388
  C         3.0914483767        7.0562503589       -6.6071666560
  C         1.7007618656        7.3861646088       -5.9576582407
  C         1.4667470292        6.5314630109       -4.6526619542
  C         3.3371004366        7.9656907652       -7.9073700501
  C         4.1423232905        7.2799585204       -9.0929045180
  O         8.2115202703        1.7210015881       -4.5441209655
  C         9.4393773035        1.1215989176       -4.6522384699
  N        10.2093020309        0.9707846218       -3.4552919956
  C         9.5774815628        1.2428569946       -2.0905292663
  C        11.6665089186        0.5645917244       -3.6086465847
  O         5.1553242851        2.2126773552       -7.1211946005
  C         3.8975552032        2.0781091511       -7.6860215232
  N         3.9171239215        2.4423627911       -9.0745432091
  C         5.2152736591        2.8671722671       -9.7480399691
  C         2.6543211389        2.2431668869       -9.8744111399
  N         6.1938712120        1.8636444267       -2.9841854369
  C         5.9576755216        0.7105031303       -2.2034589753
  C         6.1446900895       -0.6198525701       -2.9173001630
  N         6.8311473850       -0.5098764625       -4.1541908592
  C         7.3579378349       -1.6693513084       -4.7738261222
  C         7.1220905533       -2.9877974387       -4.1493436478
  C         6.3027449980       -3.0848559297       -2.9035613290
  C         5.7454715931       -1.8756694427       -2.2702741382
  C         5.7582900856        0.7114177689       -0.7535460919
  C         5.8508070281        2.0380113835       -0.1243431194
  C         6.1307175977        3.2512268089       -0.9421044612
  C         6.3533785744        3.1409202777       -2.3964053304
  O         5.1196230970       -3.3089359745       -9.5694453272
  C         6.0113675448       -4.4834892920       -9.0128760096
  C         5.1538400931       -5.7068174568       -8.4252337630
  C         4.8724286182       -5.7600688517       -6.8627113691
  C         6.8700119022       -5.0173267128      -10.2176243536
  C         7.7907213293       -3.8903283047      -10.8208731618
  C         1.8270324158       -2.3968345737       -1.4984572056
  C         2.0725517647       -2.8353900871       -2.9939655597
  H         2.5661249379        0.5579438725        2.0558212942
  H         3.8168509152        0.4651571847        0.5001041551
  H         2.3088205571        1.7739994878        0.4794223292
  H         1.7764182669       -1.4681775946        0.8377065786
  H         0.5543824657       -0.0697415051        0.2560506864
  H         3.1919196691       -0.4768264530       -1.5710343476
  H        -0.2454514472        1.8214982262       -0.7431389126
  H         0.4294661824        4.4795334442       -0.8277221984
  H         2.5264614429        5.3405270885       -2.5315107043
  H         1.0328583145       -1.8593423586       -5.7282271635
  H         0.5089236146       -3.6762261842       -7.8489603481
  H         2.4658017858       -4.3315854558       -9.5899428847
  H        11.2232710120        1.7780169375      -11.3231377825
  H        10.0205564860       -0.6272759239      -11.8972899570
  H         7.9801657655       -1.5951972669      -10.1739254553
  H        12.3772941635        4.5045498632       -8.7176346476
  H        11.0691964009        2.2821987825       -6.6425216914
  H        12.9739778853        2.8287082069       -6.5507698665
  H        11.5193732124        4.3381424644       -4.9843330396
  H        12.2475115605        5.3731811730       -6.5165903959
  H        10.2981968046        4.7859178402       -6.5192385616
  H        13.8582810432        2.2376219513       -8.3359016475
  H        12.4523298764        1.2125448961       -9.2150777776
  H        13.7803538834        1.8734854202      -11.2152440159
  H        12.6190742026        3.5247480838      -11.0486969294
  H        14.4733007133        3.5159174873      -10.3350407935
  H         5.7547930146        9.3900936050       -6.5924967570
  H         8.3135608371        8.6533469214       -7.6439844497
  H         9.1636833221        5.9739987419       -7.6967911996
  H         3.2393145148        5.8745713459       -6.9232045076
  H         1.8279289935        8.5747159395       -5.6855104976
  H         0.8540287765        7.2321350167       -6.8133634158
  H         1.5455790101        5.3466313565       -4.9209449235
  H         2.2814551476        6.8395993692       -3.8021928418
  H         0.3407549745        6.8472826042       -4.2987066682
  H         2.1882721668        8.1493084916       -8.2941991968
  H         3.8109462175        9.0766768114       -7.6100036312
  H         4.0427714272        6.0622756261       -9.0434195552
  H         3.6514856234        7.6461441418      -10.1551457358
  H         5.3090176932        7.6160405721       -9.0418359525
  H        10.0095612017        0.7783888036       -5.7082003182
  H         9.3746975358        0.1468457874       -1.5553002828
  H        10.4114169164        1.8736268044       -1.4368669098
  H         8.5356414876        1.8662262359       -2.2578163534
  H        12.0965715687        0.4309317908       -2.4668524353
  H        11.6821457122       -0.5083759224       -4.2111189918
  H        12.2466490404        1.4659087217       -4.2177877471
  H         2.7970268935        1.7656726971       -7.1893863144
  H         6.0325867221        3.1335856213       -8.8669027117
  H         5.6010657500        1.9268486070      -10.4509867069
  H         4.9142260432        3.8356011659      -10.4500388399
  H         1.7439146563        2.0954209964       -9.0660391421
  H         2.5162612467        3.2506581811      -10.5653934802
  H         2.8176141343        1.2370884940      -10.5737356318
  H         7.9655479493       -1.4973389038       -5.8339487974
  H         7.6670935684       -3.9628016626       -4.6250783812
  H         6.0474256047       -4.1598986677       -2.3990084655
  H         5.1077690676       -1.8610182371       -1.2339887662
  H         5.6693348676       -0.3367063791       -0.1467310195
  H         5.6662188412        2.1149719399        1.0696359741
  H         6.2030715558        4.3559634321       -0.4494594081
  H         6.6128831200        4.0750568874       -3.1524498839
  H         6.6637894838       -3.9874103548       -8.0992841173
  H         4.1116214762       -5.8711396666       -9.0448336941
  H         5.8487943525       -6.6860248597       -8.6615824125
  H         4.8339489294       -6.9513174960       -6.4930309463
  H         5.7571848028       -5.1165591957       -6.3034215155
  H         3.8442464258       -5.1115343383       -6.6687953706
  H         7.5022399999       -5.9431613517       -9.7512499842
  H         6.0702372513       -5.4303906088      -11.0430932798
  H         8.3749960283       -3.3274682583       -9.9156057702
  H         8.6029657126       -4.5080586641      -11.4986810997
  H         7.1393905295       -3.1455594969      -11.5298278257
  H         2.5369666108       -2.9636586537       -0.6905260662
  H         0.6519113760       -2.5464663191       -1.1821111851
  H         2.0351116776       -4.0562320528       -2.9518172618
  H         1.1785503765       -2.4156322036       -3.7056320853
  H         3.1512462658       -2.4165458134       -3.3722561614
     165
 i =        3, E =      -782.4501907998
  C         2.6621738129        0.6753230647        0.8289350178
  C         1.7113416054       -0.4422627008        0.2035831470
  C         2.0595435784       -0.8503933916       -1.3008790855
  O         0.9589531687       -0.2147223194       -2.2604519569
  C         1.2647805308        1.2426175893       -2.2082471435
  C         0.5561802164        2.2773005982       -1.3869190793
  C         0.9498636134        3.7300084261       -1.4206917135
  C         2.0493165046        4.2221573830       -2.3315740379
  C         2.7528217286        3.1652604724       -3.0565252762
  C         2.4118652253        1.7348860157       -2.9773962621
  C         3.1522941026        1.0464556692       -4.1134431676
  N         2.8270310805       -0.3317830625       -4.4915797411
  C         3.6630645391       -0.7418403160       -5.6220483937
  C         3.1343400958       -1.8105326593       -6.5578597933
  C         1.7744283119       -2.3237511224       -6.6138353724
  C         1.5325927656       -3.2952343138       -7.7403188839
  C         2.6357727493       -3.6606398723       -8.6942946108
  C         4.0110759579       -3.0610258676       -8.6386826934
  C         4.1986257030       -2.1288196046       -7.5262971801
  C         5.3574238619       -1.1944747693       -7.2269358435
  N         4.9904481527       -0.3452055540       -6.0780198053
 Dy         6.1572726403        1.2974398963       -5.1725731802
  N         4.0021764132        2.0379410130       -4.8438070010
  C         3.7661234147        3.3374809032       -4.1907264793
  N         4.2483483531        4.6863603270       -4.4864352782
  C         5.4726565375        4.6896674239       -5.2686448262
  N         6.5145866525        3.6211020460       -5.2834717963
  C         7.5783565670        4.0726086567       -6.1999763882
  N         8.6572322223        3.4616519183       -6.9939676337
  C         8.4149001393        2.0758698112       -7.3740794693
  N         7.3578598836        1.1301381523       -6.9868393836
  C         7.3165648714        0.0241262546       -7.9373842905
  N         6.5066414111       -1.1896414566       -8.1216403035
  C         8.4543496829        0.2239177798       -8.9213172541
  C         9.1619388329        1.4598609289       -8.5454565183
  C        10.1207087822        2.1048730293       -9.4518585360
  C        10.4889561378        1.2692829880      -10.6633728689
  C         9.8052133580       -0.0336137197      -10.9943851068
  C         8.7011459361       -0.5784667681      -10.1153665754
  O        10.5530449628        3.4762431538       -9.1201133559
  C        11.9921874294        3.4082706544       -8.4689429773
  C        11.8501468202        3.1710201428       -6.8981116751
  C        11.4279047792        4.5172441705       -6.1745763763
  C        12.9329354429        2.3234334956       -9.1374967973
  C        13.4656699474        2.8224671718      -10.5487995933
  C         7.3039082626        5.5490437896       -6.5426847750
  C         5.9719733276        5.9186851750       -6.0238342651
  C         5.4347161582        7.3013800004       -6.0429630698
  C         6.2091675707        8.4500729355       -6.6965274094
  C         7.5565454154        7.9676683133       -7.2629049223
  C         8.1245405599        6.5405142842       -7.2335211221
  O         4.0890053927        7.4731078307       -5.4203359378
  C         3.1043665778        7.0846202304       -6.6115118881
  C         1.6931382574        7.3823519780       -5.9775632288
  C         1.4376500305        6.5297463629       -4.6599793855
  C         3.3536434730        8.0350510645       -7.8876793242
  C         4.1660622522        7.3025152807       -9.0656411101
  O         8.2650518258        1.8493856658       -4.5482036822
  C         9.4722341160        1.1671510103       -4.6744720935
  N        10.2222222889        0.9406653034       -3.4603392289
  C         9.5695368125        1.2442183779       -2.0800809715
  C        11.7086433137        0.5475552182       -3.6116341030
  O         5.1780063496        2.2579091593       -7.0881625285
  C         3.9301110673        2.1030485403       -7.6796002891
  N         3.8916823577        2.4341083080       -9.0918329980
  C         5.2156314222        2.8740279727       -9.7638885906
  C         2.6144357668        2.2408678194       -9.9180647738
  N         6.1563206970        1.8881125830       -2.9503104857
  C         5.9224379280        0.7140298300       -2.1640722465
  C         6.1313657834       -0.6438318803       -2.8917142982
  N         6.8795078244       -0.5371913695       -4.1199478726
  C         7.3759504449       -1.7203166388       -4.7682367425
  C         7.1246438459       -3.0742316875       -4.1629156323
  C         6.2881791742       -3.1725515446       -2.9003619070
  C         5.7262578617       -1.9268328645       -2.2782505508
  C         5.7296140919        0.7415909321       -0.7052642405
  C         5.8147823039        2.0803577921       -0.0429794388
  C         6.1251606898        3.3168557077       -0.8576828930
  C         6.3152689068        3.1746420100       -2.3376918739
  O         5.0846116461       -3.3260398858       -9.6201240986
  C         5.9632110697       -4.4989663078       -8.9814118237
  C         5.1533657180       -5.7847855684       -8.4508578299
  C         4.9066538635       -5.8985370718       -6.8661606347
  C         6.8543305755       -5.0146426359      -10.1777070803
  C         7.7923657088       -3.9069081446      -10.8244873327
  C         1.8500378129       -2.3986518556       -1.4834500618
  C         2.0880624879       -2.8629780864       -2.9844683364
  H         2.5839679403        0.5920936033        2.0705633101
  H         3.8388743520        0.4992578005        0.4974922374
  H         2.3427406091        1.8157621360        0.4549708197
  H         1.7535289317       -1.4955059525        0.8541868168
  H         0.5236141788       -0.0900826327        0.2457925254
  H         3.2071915165       -0.4604132467       -1.6412920087
  H        -0.3264343922        1.8359765313       -0.6564910431
  H         0.3466808194        4.5479993293       -0.7308869020
  H         2.4783094963        5.3802152856       -2.5452597551
  H         1.0135010687       -1.8810180162       -5.7205149537
  H         0.4035425487       -3.7533313283       -7.8989741940
  H         2.4310335059       -4.4101348817       -9.6445311129
  H        11.3200392785        1.7800546986      -11.4059388058
  H        10.0834997291       -0.6584272152      -12.0179954568
  H         7.9790050106       -1.5953468363      -10.2217859308
  H        12.4581399036        4.5595366728       -8.6792542289
  H        11.0550627002        2.2450181610       -6.6726049246
  H        12.9747235162        2.7925923700       -6.5275200919
  H        11.4945862238        4.3734276154       -4.9461718864
  H        12.2327199579        5.4015551092       -6.5187706413
  H        10.2722082104        4.7997425560       -6.5121909342
  H        13.8568787523        2.2004213486       -8.3198480565
  H        12.4126507117        1.1988666605       -9.1827776050
  H        13.7928037372        1.8689618309      -11.2672602993
  H        12.6082762229        3.5373940818      -11.0909203915
  H        14.4648506646        3.5393067197      -10.3602148405
  H         5.6445614992        9.6332626979       -6.6727662094
  H         8.3721670552        8.7779994057       -7.7098280423
  H         9.1889772643        6.0231675754       -7.6955476054
  H         3.2515075021        5.8597560921       -6.8818784855
  H         1.7760522981        8.5947068683       -5.7062086902
  H         0.8037237015        7.2489293100       -6.8241490322
  H         1.5597621262        5.3117778289       -4.8803658382
  H         2.2910569893        6.8291955821       -3.8100829934
  H         0.3087865156        6.8100077761       -4.2335459282
  H         2.1844069709        8.2144573439       -8.2767298317
  H         3.8363890617        9.1677539711       -7.5476308646
  H         4.0571847607        6.0582150100       -9.0269653196
  H         3.6780228038        7.6483416106      -10.1603276822
  H         5.3734473709        7.5856675845       -9.0437260085
  H        10.0558859139        0.7778479808       -5.7391245148
  H         9.3509645013        0.1308799941       -1.5297827491