      51
 i =       34, E =      -518.3174766875
  C         1.3873836991       -1.3896145122       -0.2965917439
  O         0.3664876382       -0.7509854579        0.3596439341
 Dy        -0.7181928938        0.7600848385        1.7975816996
  O         0.4690825601        2.0940609963        0.0809651487
  O        -2.5014801511       -0.5502224514        2.4696753481
  C        -3.2883422680       -0.7671856760        3.4472620771
  C        -4.4324814464       -1.7177522656        3.3161871239
  C        -3.1064938847       -0.0557762418        4.7248075755
  C        -2.0531782699        0.9473603567        4.9939164037
  O        -1.2424883184        1.3092240035        4.0912703619
  C        -1.9744368089        1.5019365493        6.3808826093
  O        -2.1405878313        0.7910711908       -0.0986812644
  C        -2.9452244090        1.5374778039       -0.7325439039
  C        -3.4858810393        1.1494136922       -2.0694906271
  C        -3.3526759126        2.8453282899       -0.1493581394
  C        -2.8805264522        3.3043063479        1.1524422048
  O        -1.9640662802        2.7505048529        1.8112344846
  C        -3.5896095776        4.5272869431        1.8194216650
  F        -4.9309384879        4.3751792121        1.6626002880
  F        -3.1870387246        5.6809477578        1.2447419300
  F        -3.2708662197        4.5263393295        3.1259185969
  O         0.6399023385       -0.5554011981        3.2697869528
  C         1.6435076538       -0.4930420722        4.0412691850
  C         1.9855648961       -1.5802710645        5.0082951187
  C         2.5331260620        0.6992591411        4.0097208987
  C         2.2618440783        1.8356009193        3.1410451379
  O         1.1728152139        2.0174767086        2.5480669811
  C         3.3889480487        2.8772694053        2.8532192101
  F         4.5778176303        2.2310513245        2.7803282794
  F         3.4032884344        3.8095606722        3.8226523522
  F         3.1330758507        3.4734731392        1.6636346034
  H         2.3155187188       -1.5001531364        0.2877995725
  H         1.0261168582       -2.3306000861       -0.7720754734
  H         1.6062267645       -0.7703251342       -1.2175151864
  H         0.4224617917        2.1977257194       -0.8896017885
  H         1.0862568738        2.7843587182        0.4128858171
  H        -4.7758328721       -2.0924458839        4.2916840043
  H        -5.2880689986       -1.1743453834        2.8637480950
  H        -4.1851977502       -2.5458079759        2.6365851439
  H        -3.7979879069       -0.2948814716        5.5392278640
  H        -1.9659802903        0.6844424281        7.1239006222
  H        -1.1039188516        2.1557620577        6.5107498286
  H        -2.8974042580        2.0758955648        6.5954481835
  H        -3.3695325832        0.0718479827       -2.2448452511
  H        -4.5335498871        1.4676091381       -2.1945121298
  H        -2.9153238229        1.6932677057       -2.8525142663
  H        -4.0486209667        3.4792136645       -0.7088082230
  H         1.9894563897       -1.1768625503        6.0391507005
  H         1.2823416831       -2.4174924859        4.9320891784
  H         3.0196477460       -1.9336669305        4.8375520315
  H         3.4373610056        0.7132282539        4.6284680544
