      51
 i =        1, E =      -518.0627691693
  C         1.0749428844       -0.9075166563       -0.1121131771
  O        -0.2419599290       -0.7978329219        0.3946215196
 Dy        -0.7029054465        0.8650975451        1.9356363767
  O         0.4109087215        1.8569227486        0.2128876454
  O        -1.9309936565       -0.7927309925        2.5680865122
  C        -3.1164377849       -0.6881069067        3.3122497960
  C        -4.3350318347       -1.5142313580        2.9449204407
  C        -2.8994430695       -0.0264079718        4.6377812456
  C        -1.8689729976        1.0134209034        4.9229738052
  O        -1.4611746991        1.7195158663        3.7823085846
  C        -1.5826809634        1.5545676989        6.3188715089
  O        -2.3166234338        0.5899341797        0.5267409404
  C        -2.7330000000        1.4396438401       -0.5284690388
  C        -3.0283931252        0.8922283613       -1.9246628304
  C        -3.0998644370        2.8169406723       -0.0445158239
  C        -2.7456021865        3.3569002679        1.2983807733
  O        -1.4511691153        3.0046085442        1.6854004879
  C        -3.4887345003        4.5059792256        2.0279547882
  F        -4.8261166477        4.4006993100        1.7624647659
  F        -2.9097377362        5.4978335892        1.2816345267
  F        -3.1096005222        4.5680012602        3.3322196902
  O         0.5535689090       -0.6009842659        2.8489779544
  C         1.3896514418       -0.4720246154        3.9779643080
  C         1.5082212650       -1.6184282415        4.9821393346
  C         2.3384186434        0.6902822144        3.9298190023
  C         2.1810315211        1.8546603353        3.0291668964
  O         0.8374482737        2.1961211803        2.7289395666
  C         3.2816882764        2.9010598073        2.7041042530
  F         4.5101114614        2.3055046230        2.7255549391
  F         3.0676969415        3.6461129852        3.8280799693
  F         2.9642134076        3.5859668387        1.5632277461
  H         1.7665584299       -0.8865443011        0.7492000861
  H         1.1892970547       -1.7982105734       -0.7285928798
  H         1.2858170264        0.0059604087       -0.6923192958
  H         0.0170899874        2.1386604982       -0.6271660028
  H         1.3361189200        2.1515130064        0.2533419135
  H        -4.6286790430       -1.8043668016        3.9623300348
  H        -5.1384157587       -1.0175470626        2.3979841874
  H        -3.8356577066       -2.3222468131        2.4007703312
  H        -3.5617308741       -0.3271746780        5.4458262501
  H        -1.6238676781        0.7779946242        7.0830760571
  H        -0.7125303123        2.2129801511        6.2879933751
  H        -2.5082336225        2.1622708791        6.2982388569
  H        -3.0123280150       -0.1892992700       -1.7629452330
  H        -4.0654928604        1.2741343617       -1.9162701659
  H        -2.4600605474        1.2861795539       -2.7679417227
  H        -3.7487107336        3.4155589107       -0.6757217810
  H         1.4878399334       -1.3460782753        6.0374681603
  H         0.8156490026       -2.3885364342        4.6364028877
  H         2.5348142841       -1.8589773774        4.6495106492
  H         3.2285275816        0.6445886567        4.5484169602
      51
 i =        2, E =      -518.2027622418
  C         1.0855008134       -0.9571615520       -0.1363842192
  O        -0.2114104332       -0.8368545336        0.3745580259
 Dy        -0.7157506861        0.8661260733        1.9854248831
  O         0.4434555094        1.8517127257        0.1589435285
  O        -2.0252308482       -0.8454681585        2.6360629481
  C        -3.0869345139       -0.7151430494        3.3718446129
  C        -4.2849563113       -1.5076121649        2.9728087309
  C        -2.9031173102       -0.0223865021        4.6216265985
  C        -1.9568456818        1.0207250979        4.9045802659
  O        -1.4839968650        1.7069141325        3.8859665997
  C        -1.5839431906        1.5327774739        6.2742510484
  O        -2.4061481769        0.6219435497        0.4213748147
  C        -2.7525365115        1.4893513715       -0.4846046846
  C        -3.0234062053        0.9076561599       -1.8453791291
  C        -3.1416173932        2.7985050991       -0.0377808823
  C        -2.7044378243        3.3132027403        1.2257104832
  O        -1.5359713589        3.1031486915        1.6872577963
  C        -3.4311870570        4.4581377045        1.9746620900
  F        -4.7671686518        4.4169025290        1.8006481845
  F        -2.9594298246        5.5498052761        1.3186461995
  F        -3.1896729722        4.6067425364        3.2868865829
  O         0.6700933516       -0.6645798796        2.9384541600
  C         1.4331284731       -0.4407595810        3.9607854293
  C         1.5005015298       -1.5816173011        4.9331018464
  C         2.3406179942        0.6838544669        3.9161187217
  C         2.1399950407        1.7957776146        3.0758570756
  O         0.9652452453        2.2619133818        2.7516395715
  C         3.2192708297        2.8579096410        2.7508351948
  F         4.4619472497        2.3444957056        2.6749132985
  F         3.1187670469        3.7176873788        3.7941292264
  F         3.0231330098        3.5544040212        1.6045702859
  H         1.7773102201       -0.8794792835        0.7427906684
  H         1.1983802916       -1.8438646537       -0.7608390829
  H         1.2956857095       -0.0120112263       -0.6945600344
  H         0.0715474338        2.1943202529       -0.6840049636
  H         1.3570875010        2.2288040067        0.1948536660
  H        -4.7010451221       -1.8338264705        3.9357481776
  H        -5.1086926318       -1.0242425224        2.4220276761
  H        -3.8944436046       -2.3395845347        2.3761510820
  H        -3.5507544246       -0.3245942464        5.4446899927
  H        -1.6255174425        0.7992039165        7.0850895733
  H        -0.7248309661        2.2102879436        6.3069333713
  H        -2.4834222377        2.1782379698        6.3629088857
  H        -3.0049000947       -0.1855381796       -1.8118790004
  H        -4.0664052162        1.2511943491       -1.9968381103
  H        -2.4915401412        1.2854860650       -2.7337788571
  H        -3.7554061826        3.4294999677       -0.6811754053
  H         1.5055113315       -1.3483260486        6.0072778761
  H         0.8216595960       -2.3959537591        4.6679225196
  H         2.5363049430       -1.9093087095        4.7077992118
  H         3.2342736580        0.6410471083        4.5396100265
      51
 i =        3, E =      -518.2277733140
  C         1.0788138348       -0.9811496012       -0.1377123153
  O        -0.2048918111       -0.8548580253        0.3666808428
 Dy        -0.7466182954        0.8512903079        1.9828436284
  O         0.4746326481        1.8780708507        0.1062397121
  O        -2.0402908602       -0.8462362336        2.6911922875
  C        -3.0637278017       -0.7130240503        3.3795059926
  C        -4.2492352550       -1.5153768089        3.0322940263
  C        -2.9247908191        0.0047200780        4.6381592901
  C        -1.9177136468        0.9930165930        4.8817888610
  O        -1.5322802800        1.6859706287        3.9351016035
  C        -1.6495250090        1.5173682483        6.2287283662
  O        -2.4241807643        0.6827470013        0.4346354769
  C        -2.7680142964        1.4603388583       -0.4834465959
  C        -3.0767430404        0.9345251101       -1.8298422716
  C        -3.1370452747        2.7860035657       -0.0204881449
  C        -2.6732149598        3.3904473047        1.2283371544
  O        -1.5636740263        3.0482661053        1.6573299330
  C        -3.4727022134        4.5241246952        1.9207689108
  F        -4.8079902605        4.3956078067        1.8073576765
  F        -2.9706225320        5.6290079761        1.3143225538
  F        -3.1848201216        4.5317768971        3.2329050336
  O         0.7230646089       -0.6070776494        2.9381908276
  C         1.4189183788       -0.4723597582        3.9618417281
  C         1.5583022434       -1.5738483420        4.9194507307
  C         2.3272779382        0.6631093928        3.8878641354
  C         2.1463404689        1.8683229848        3.1034046443
  O         0.9853856596        2.1873490527        2.7856965678
  C         3.2640205710        2.8911060905        2.7955490711
  F         4.4735908083        2.3225312711        2.6894544733
  F         3.1672212699        3.7696926564        3.8194681730
  F         2.9822004172        3.4869534731        1.6021073287
  H         1.8054288645       -0.9040313257        0.7118160872
  H         1.2177687153       -1.8639874571       -0.7697815842
  H         1.3077928461       -0.0438722439       -0.7078294246
  H         0.0851141692        2.2238688138       -0.7231473864
  H         1.3738278765        2.2821056586        0.1825297791
  H        -4.7784546554       -1.8947658396        3.9324756616
  H        -5.0495946269       -1.0002724445        2.4514016703
  H        -3.9481821283       -2.3544445808        2.3708546884
  H        -3.5583233432       -0.3352752333        5.4651126774
  H        -1.6276257549        0.8123284127        7.0720627164
  H        -0.7586686681        2.1661921046        6.2885989742
  H        -2.4935931188        2.2237718905        6.4596319074
  H        -2.9895265388       -0.1651608452       -1.8255016011
  H        -4.1220984374        1.2324926992       -2.0741979598
  H        -2.4858077570        1.3084957549       -2.6909368327
  H        -3.7570667736        3.4239086496       -0.6635341628
  H         1.5117595379       -1.3268718312        5.9941469730
  H         0.8293354826       -2.3656280427        4.6847654622
  H         2.5824186536       -1.9862790929        4.7571472993
  H         3.2299460597        0.6458756351        4.5140200744
      51
 i =        4, E =      -518.2625043710
  C         1.0765497469       -0.9975419066       -0.1355674215
  O        -0.1991690748       -0.8554477538        0.3606624797
 Dy        -0.7539775480        0.8661130745        1.9151764143
  O         0.5015614140        1.8975700841        0.0679296555
  O        -2.0192616265       -0.8007807599        2.6892542567
  C        -3.0687930123       -0.7655423788        3.3985770221
  C        -4.2678332584       -1.5537264973        3.0631614603
  C        -2.9563240244       -0.0341401229        4.6713695290
  C        -1.9889449818        1.0553290945        4.9135426969
  O        -1.4719898590        1.6436516854        3.8904203517
  C        -1.6831007840        1.5353355797        6.2725887341
  O        -2.3878904003        0.6780400271        0.4447440904
  C        -2.8259424133        1.4478256375       -0.4672346117
  C        -3.1180397199        0.9446811768       -1.8282151416
  C        -3.1525983782        2.8374676999       -0.0608091339
  C        -2.6688238411        3.3779550824        1.2088297290
  O        -1.5830798814        3.0254113652        1.7014351716
  C        -3.4560099623        4.5286316697        1.8950111527
  F        -4.7896957224        4.3800620863        1.7737436871
  F        -3.0432196642        5.6991524906        1.3286918277
  F        -3.1829347776        4.4861817048        3.2160841959
  O         0.6713754351       -0.5881456457        2.9280523989
  C         1.4719091759       -0.4979282971        3.9183666978
  C         1.5929438374       -1.5780332598        4.9133035475
  C         2.3807784610        0.6809076266        3.9351554129
  C         2.1155355276        1.8660021010        3.1200266606
  O         0.9733145479        2.1704363725        2.7578014044
  C         3.2587649596        2.8741455042        2.8216973641
  F         4.4711024327        2.3186448802        2.7342604977
  F         3.2470233547        3.8032011167        3.8150656687
  F         2.9677408470        3.4424145804        1.6131721921
  H         1.8310862958       -0.9311406330        0.6849128565
  H         1.2279715090       -1.8790062627       -0.7722336824
  H         1.3133406760       -0.0715701497       -0.7207912281
  H         0.0945549151        2.2443661169       -0.7454889875
  H         1.3823811377        2.3220298687        0.1819933582
  H        -4.8188908339       -1.9365286273        3.9454424773
  H        -5.0142486794       -0.9530820303        2.4678038277
  H        -3.9689595815       -2.3734425615        2.3766180731
  H        -3.5858821889       -0.3423548669        5.5071986285
  H        -1.6386426381        0.7846628888        7.0751315759
  H        -0.7576907731        2.1459528300        6.2610888166
  H        -2.5145922464        2.2459765248        6.5121693758
  H        -2.9870621442       -0.1548001761       -1.8317881957
  H        -4.1588094044        1.2171804936       -2.1219624561
  H        -2.4736170585        1.3412666101       -2.6486963139
  H        -3.8020681935        3.4504344370       -0.6913822152
  H         1.5201146840       -1.2966126306        5.9823689685
  H         0.8349774752       -2.3527535142        4.6958250864
  H         2.6082148698       -2.0355032366        4.7931943794
  H         3.2910931972        0.6370216430        4.5406366611
      51
 i =        5, E =      -518.2686508360
  C         1.0963728752       -1.0288789996       -0.1461629439
  O        -0.1740866988       -0.8588343276        0.3376621088
 Dy        -0.6972088642        0.8639785214        1.8514377818
  O         0.5297405468        1.8969457945        0.0222395013
  O        -2.0415176522       -0.7730892222        2.6702371049
  C        -3.0734811553       -0.8274210735        3.4692481042
  C        -4.2843850494       -1.5956872406        3.0661750773
  C        -3.0036933234       -0.0295464700        4.7326388088
  C        -2.0144970451        1.0552965015        4.9285628758
  O        -1.4502378021        1.6077488817        3.9097343879
  C        -1.7056420613        1.5614452934        6.2811117662
  O        -2.3733593696        0.6916574423        0.4023328503
  C        -2.8846080977        1.4724302380       -0.4817026925
  C        -3.1545733515        0.9268545906       -1.8347783181
  C        -3.2089555492        2.8663531684       -0.1088135341
  C        -2.6712298871        3.4321357298        1.1357315279
  O        -1.6212953777        2.9783036692        1.7688555781
  C        -3.4664688426        4.5436220025        1.9071907554
  F        -4.7905300872        4.3563847953        1.7049878185
  F        -3.1291207419        5.7325456199        1.3304142647
  F        -3.1590858566        4.5040413002        3.2175474459
  O         0.6800541092       -0.5960115131        2.9583883789
  C         1.5106749972       -0.5005973477        3.9150280067
  C         1.6125591878       -1.6033650785        4.8961150428
  C         2.4468600170        0.6536811606        3.9839369493
  C         2.1400964043        1.8883068388        3.2204265690
  O         0.9892381746        2.1542653565        2.6844583828
  C         3.2752118148        2.9013494716        2.8285368344
  F         4.4578960028        2.2697980984        2.7660023628
  F         3.3247736578        3.8541330347        3.8006812387
  F         2.9761452597        3.4468592634        1.6101538293
  H         1.8565109956       -0.9562796071        0.6661175687
  H         1.2210560874       -1.9149701216       -0.7824877836
  H         1.3162102338       -0.0990732863       -0.7373239175
  H         0.1279194152        2.2870388761       -0.7795752631
  H         1.3815903165        2.3863716970        0.1668293924
  H        -4.8379014505       -1.9609137487        3.9428241603
  H        -4.9846991425       -0.9072698078        2.4944377071
  H        -3.9910243245       -2.4099635319        2.3861470577
  H        -3.6260152056       -0.3607253357        5.5601840033
  H        -1.6701408689        0.7672034694        7.0484971687
  H        -0.7608716569        2.1369620403        6.2476592638
  H        -2.5265874657        2.2612413136        6.5823369009
  H        -3.0019705551       -0.1648617304       -1.8428135951
  H        -4.1791768181        1.2026263843       -2.1592250054
  H        -2.4656310149        1.3944757386       -2.5936651829
  H        -3.8520782861        3.4863313806       -0.7261103311
  H         1.5412389898       -1.2414730816        5.9498298238
  H         0.8372568466       -2.3632731400        4.7032688157
  H         2.6263453326       -2.0746553813        4.8312198996
  H         3.3601515081        0.6353268857        4.5726819608
      51
 i =        6, E =      -518.2806235724
  C         1.1122867113       -1.0525145265       -0.1594556455
  O        -0.1528769308       -0.8576664612        0.3326116433
 Dy        -0.6925312523        0.8804413723        1.8505570037
  O         0.5436279216        1.8953067622       -0.0007126964
  O        -2.0773266781       -0.7945738677        2.6984332204
  C        -3.0848005703       -0.8096564809        3.4704710256
  C        -4.2790609490       -1.6038765276        3.0740828203
  C        -3.0116912949       -0.0581518079        4.7403336935
  C        -2.0440378868        1.0549605699        4.9420734246
  O        -1.4568720335        1.5673019863        3.9222749762
  C        -1.7072265607        1.5743665024        6.2944657962
  O        -2.3707439593        0.7237949777        0.3823714061
  C        -2.9365213940        1.4910910072       -0.4950341706
  C        -3.1705569629        0.9207519285       -1.8536250012
  C        -3.2030885391        2.8963810925       -0.0968687062
  C        -2.6989369946        3.4146594668        1.1592438850
  O        -1.6599300295        2.9960202065        1.7076378982
  C        -3.4726277269        4.5573980745        1.8819968478
  F        -4.7972120965        4.3448233527        1.6932320395
  F        -3.1418360040        5.7581856508        1.3347541003
  F        -3.1558436223        4.5325861182        3.1869583396
  O         0.6894759947       -0.5708432610        2.9789695020
  C         1.5732809967       -0.5280289309        3.9133447855
  C         1.6239673665       -1.6341072604        4.9123104044
  C         2.4477714906        0.6960936127        3.9963414484
  C         2.1676297666        1.8819118020        3.1938034982
  O         1.0419441526        2.1397862062        2.7274041992
  C         3.2837503673        2.9163583737        2.8461617998
  F         4.4516725079        2.2493306748        2.7853075088
  F         3.3547685276        3.8855201315        3.7965241606
  F         2.9960222692        3.4577617090        1.6259418811
  H         1.8693786546       -0.9696883351        0.6559662963
  H         1.2157430538       -1.9433613914       -0.7923441099
  H         1.3233219279       -0.1169173217       -0.7510306492
  H         0.1565445408        2.3145481629       -0.8021967751
  H         1.3769887991        2.4215866579        0.1536582933
  H        -4.8498141524       -1.9723584303        3.9382879602
  H        -4.9640547195       -0.9021745252        2.5179591470
  H        -4.0062789454       -2.4224348832        2.3930415731
  H        -3.6391408273       -0.3562196441        5.5804904502
  H        -1.6893224753        0.7568081245        7.0401054944
  H        -0.7640200017        2.1418842418        6.2516957840
  H        -2.5268019904        2.2614665152        6.6098605112
  H        -3.0144785047       -0.1655726000       -1.8476314287
  H        -4.1869991741        1.1968352285       -2.1763354380
  H        -2.4685727679        1.4200107536       -2.5796532205
  H        -3.8660225085        3.4852196685       -0.7303194120
  H         1.5554471522       -1.2134480903        5.9489493297
  H         0.8390227347       -2.3739797019        4.7035276208
  H         2.6332744034       -2.0847132545        4.8428587695
  H         3.3717674447        0.6251994740        4.5726791991
      51
 i =        7, E =      -518.2862270436
  C         1.1160336453       -1.0614388623       -0.1664682907
  O        -0.1406737905       -0.8467585695        0.3531204393
 Dy        -0.7391787153        0.8928885383        1.8794809676
  O         0.5488961008        1.9216334910       -0.0011876625
  O        -2.0768547953       -0.7844096521        2.7106524204
  C        -3.0880760041       -0.8169395656        3.4622177037
  C        -4.2931679803       -1.6023365614        3.0899883828
  C        -3.0077160011       -0.0660544434        4.7303795217
  C        -2.0537933558        1.0573552956        4.9457398091
  O        -1.4705942321        1.5473432713        3.9218616344
  C        -1.7135789922        1.5675967530        6.3076482348
  O        -2.4025696187        0.7399569140        0.3800216123
  C        -2.8872701101        1.4938112349       -0.4907965385
  C        -3.1777400824        0.9537790093       -1.8418251503
  C        -3.2210992127        2.8674649843       -0.1071409121
  C        -2.7043050240        3.4234990905        1.1409371115
  O        -1.6733268795        2.9896431341        1.6861368255
  C        -3.4697364487        4.5732428357        1.8551418979
  F        -4.7976457652        4.3506543970        1.7042427409
  F        -3.1084741464        5.7635507699        1.3247693891
  F        -3.1723291844        4.5300027143        3.1676942075
  O         0.7233315777       -0.5515110413        2.9829641409
  C         1.5496326852       -0.5003317577        3.9275595628
  C         1.6423061410       -1.6110482439        4.9092566291
  C         2.4546586632        0.6794597344        3.9825403087
  C         2.1696247760        1.8869841530        3.2011675142
  O         1.0483073542        2.1363042363        2.7252417311
  C         3.3003591974        2.9066018645        2.8631038707
  F         4.4691951823        2.2456274156        2.7745125049
  F         3.3289438409        3.8817018381        3.7925761036
  F         3.0003153279        3.4687120956        1.6588526864
  H         1.8794523882       -0.9833610238        0.6432995144
  H         1.2167106844       -1.9558826149       -0.7950853026
  H         1.3387543404       -0.1339585537       -0.7671715089
  H         0.1690074718        2.3147504019       -0.8113332473
  H         1.3782704224        2.4207163549        0.1521399637
  H        -4.8611798536       -1.9798354176        3.9489299793
  H        -4.9657600867       -0.9190620544        2.5253042778
  H        -4.0092410960       -2.4098800157        2.3986133211
  H        -3.6402201106       -0.3488641896        5.5790701032
  H        -1.6897124880        0.7559709349        7.0525765689
  H        -0.7776066354        2.1413384340        6.2628315798
  H        -2.5244498899        2.2591269942        6.6112795856
  H        -3.0198526054       -0.1355040476       -1.8519646787
  H        -4.1999095533        1.1914180986       -2.2018101690
  H        -2.4914516821        1.4104315237       -2.5800512331
  H        -3.8709273393        3.4941248664       -0.7253028836
  H         1.5621904778       -1.2254724770        5.9432000395
  H         0.8620020029       -2.3602909828        4.7130538473
  H         2.6386222342       -2.1016684704        4.8556169634
  H         3.3731825071        0.6275425079        4.5751613628
      51
 i =        8, E =      -518.2879808659
  C         1.1246474460       -1.0706865084       -0.1711498601
  O        -0.1271841331       -0.8410649034        0.3598539308
 Dy        -0.7628140544        0.9021736726        1.9119748536
  O         0.5583624180        1.9469545264       -0.0119867277
  O        -2.0941895201       -0.7687945498        2.6931358129
  C        -3.0859136061       -0.8301792054        3.4897357308
  C        -4.2977031022       -1.6074794588        3.1066766264
  C        -3.0282342351       -0.0448874047        4.7551243987
  C        -2.0319525417        1.0229851871        4.9369191988
  O        -1.4815794355        1.5371931865        3.9518531594
  C        -1.7385063254        1.5585765172        6.2941375278
  O        -2.3701859892        0.7502763383        0.3825094558
  C        -2.9344158773        1.4946733927       -0.4975704510
  C        -3.2016646164        0.9642222973       -1.8621750161
  C        -3.2380521571        2.8891995793       -0.1277595851
  C        -2.7052102269        3.4347521091        1.1157205641
  O        -1.6833060405        2.9696726800        1.6857575212
  C        -3.4685602888        4.5817580419        1.8385490592
  F        -4.7978553444        4.3783565166        1.7001810837
  F        -3.1351434899        5.7788767580        1.3114775824
  F        -3.1956810955        4.5252052090        3.1588864655
  O         0.7151057026       -0.5318340352        2.9927987209
  C         1.5635826398       -0.4928419417        3.9263271652
  C         1.6671260908       -1.6029134525        4.9101271036
  C         2.4782405488        0.6761364604        3.9935478264
  C         2.1719559970        1.8848145302        3.2173961387
  O         1.0568815469        2.1345513935        2.7005997259
  C         3.3015549295        2.9052054681        2.8870021130
  F         4.4710681843        2.2447513030        2.7858094093
  F         3.3554614301        3.8839852332        3.8063893196
  F         2.9943779540        3.4693021616        1.6863471042
  H         1.9026375011       -1.0066169351        0.6237703670
  H         1.2081285826       -1.9730149371       -0.7941932188
  H         1.3583708670       -0.1580161469       -0.7897970317
  H         0.1870158819        2.3249378913       -0.8296350336
  H         1.3788076935        2.4455904181        0.1556228653
  H        -4.8780517494       -1.9928431089        3.9551987252
  H        -4.9590182460       -0.9266712681        2.5422468779
  H        -4.0226191759       -2.4116869948        2.4049046283
  H        -3.6609321657       -0.3571589826        5.5945395105
  H        -1.6946540911        0.7647341902        7.0525282785
  H        -0.8017711721        2.1282513852        6.2740266680
  H        -2.5278268211        2.2651647121        6.6398314445
  H        -3.0263791578       -0.1223186544       -1.8575897297
  H        -4.2179177840        1.1946559929       -2.2215094269
  H        -2.5031660848        1.4224760812       -2.5824798564
  H        -3.8990690024        3.5074468121       -0.7422837541
  H         1.5749101453       -1.2243533422        5.9389325191
  H         0.8807913275       -2.3493369016        4.7227695783
  H         2.6515413931       -2.1183895768        4.8716560168
  H         3.3970266813        0.6283836479        4.5880165907
      51
 i =        9, E =      -518.2925682814
  C         1.1343027104       -1.0768451354       -0.1729852522
  O        -0.1177788317       -0.8434325510        0.3518135093
 Dy        -0.7389769786        0.8861182328        1.8908587733
  O         0.5658104890        1.9501625044       -0.0245022928
  O        -2.1188553997       -0.7664041404        2.6970166418
  C        -3.0999993035       -0.8198966180        3.4964471192
  C        -4.2949940877       -1.6196267246        3.1167740965
  C        -3.0429456712       -0.0662957626        4.7705427007
  C        -2.0703382735        1.0335437769        4.9562350329
  O        -1.4345923623        1.5130036207        3.9488174935
  C        -1.7509393179        1.5661209750        6.3117437246
  O        -2.3729690561        0.7653569597        0.3554576120
  C        -2.9467869633        1.5147118389       -0.5150625064
  C        -3.2191584265        0.9580375180       -1.8672591395
  C        -3.2564490130        2.9023101815       -0.1368424551
  C        -2.7094856607        3.4548310936        1.0986516299
  O        -1.6943991066        2.9668193061        1.6878340076
  C        -3.4868937953        4.5875442463        1.8430910647
  F        -4.8127367356        4.3821769172        1.6695185404
  F        -3.1386371600        5.7730870026        1.3183995142
  F        -3.1811671152        4.5238800019        3.1566742783
  O         0.7035457776       -0.5313214319        3.0114946977
  C         1.5860226194       -0.5009194574        3.9297505988
  C         1.6812065481       -1.6155521423        4.9131941641
  C         2.4896666389        0.6812962767        4.0043552963
  C         2.1881022523        1.8943190116        3.2310885581
  O         1.0703638960        2.1285239125        2.6987554771
  C         3.3036499501        2.9274444588        2.8937758576
  F         4.4630791537        2.2361033637        2.7925765796
  F         3.3730932998        3.8792591632        3.8314571914
  F         2.9892190094        3.4642558655        1.6766814708
  H         1.9225922456       -1.0235147104        0.6107252814
  H         1.1929200027       -1.9863246594       -0.7917219728
  H         1.3701478291       -0.1748917710       -0.8053253088
  H         0.2006923508        2.3373896956       -0.8436707019
  H         1.3759311337        2.4794143438        0.1629730876
  H        -4.8875503546       -2.0020409656        3.9601278524
  H        -4.9490387614       -0.9205547105        2.5587175433
  H        -4.0318460112       -2.4238130354        2.4102329219
  H        -3.6803781962       -0.3604736885        5.6102056836
  H        -1.7032159349        0.7598932709        7.0595764282
  H        -0.8058147328        2.1252105159        6.2788703468
  H        -2.5401459301        2.2650337708        6.6538308246
  H        -3.0349871264       -0.1257689995       -1.8670565203
  H        -4.2268756308        1.1992416993       -2.2323495327
  H        -2.5111911994        1.4404770378       -2.5722753037