srun: Job 11423785 step creation temporarily disabled, retrying (Requested nodes are busy)
srun: Step created for job 11423785
 DBCSR| Multiplication driver                                               XSMM
 DBCSR| Multrec recursion limit                                              512
 DBCSR| Multiplication stack size                                           1000
 DBCSR| Maximum elements for images                                    UNLIMITED
 DBCSR| Multiplicative factor virtual images                                   1
 DBCSR| Randmat seed                                                    12341313
 DBCSR| Multiplication size stacks                                             3
 DBCSR| Number of 3D layers                                               SINGLE
 DBCSR| Use MPI memory allocation                                              T
 DBCSR| Use RMA algorithm                                                      F
 DBCSR| Use Communication thread                                               T
 DBCSR| Communication thread load                                             87


  **** **** ******  **  PROGRAM STARTED AT               2023-04-08 17:36:02.783
 ***** ** ***  *** **   PROGRAM STARTED ON        node154.pri.kelvin2.alces.netw
 **    ****   ******    PROGRAM STARTED BY                              40265864
 ***** **    ** ** **   PROGRAM PROCESS ID                                 11849
  **** **  *******  **  PROGRAM STARTED IN /mnt/scratch2/users/40265864/MSc_ML_M
                                           M/ln_replacements/xyz/Dy_L18_L20_L20_
                                           MeO_O/geometry_optimisation_2/run-6

 CP2K| version string:                                          CP2K version 4.1
 CP2K| source code revision number:                                    svn:17462
 CP2K| cp2kflags: libint fftw3 libxc parallel mpi3 scalapack libxsmm libderiv_ma
 CP2K|            x_am1=5 libint_max_am=6
 CP2K| is freely available from                            https://www.cp2k.org/
 CP2K| Program compiled at                          Mon 24 Oct 18:14:20 BST 2022
 CP2K| Program compiled on                      login1.pri.kelvin2.alces.network
 CP2K| Program compiled for                                                local
 CP2K| Data directory path                      /users/40265864/source/cp2k/data
 CP2K| Input file name                                         geo-opt-relax.inp

 GLOBAL| Force Environment number                                              1
 GLOBAL| Basis set file name                                 ../BASIS_MOLOPT_UCL
 GLOBAL| Potential file name                                        ../POTENTIAL
 GLOBAL| MM Potential file name                                     MM_POTENTIAL
 GLOBAL| Coordinate file name                     ../../Dy_L18_L20_L20_MeO_O.xyz
 GLOBAL| Method name                                                        CP2K
 GLOBAL| Project name                                                 dy_complex
 GLOBAL| Preferred FFT library                                             FFTW3
 GLOBAL| Preferred diagonalization lib.                                       SL
 GLOBAL| Run type                                                        GEO_OPT
 GLOBAL| All-to-all communication in single precision                          F
 GLOBAL| FFTs using library dependent lengths                                  F
 GLOBAL| Global print level                                                  LOW
 GLOBAL| Total number of message passing processes                           121
 GLOBAL| Number of threads for this process                                    1
 GLOBAL| This output is from process                                           0
 GLOBAL| CPU model name :  AMD EPYC 7702 64-Core Processor

 MEMORY| system memory details [Kb]
 MEMORY|                        rank 0           min           max       average
 MEMORY| MemTotal            792056772     792056772     792056772     792056772
 MEMORY| MemFree             769147984     769147984     769147984     769147984
 MEMORY| Buffers                203572        203572        203572        203572
 MEMORY| Cached                3060348       3060348       3060348       3060348
 MEMORY| Slab                  4928620       4928620       4928620       4928620
 MEMORY| SReclaimable          3284648       3284648       3284648       3284648
 MEMORY| MemLikelyFree       775696552     775696552     775696552     775696552


 GENERATE|  Preliminary Number of Bonds generated:                             0
 GENERATE|  Achieved consistency in connectivity generation.

 *******************************************************************************
 *******************************************************************************
 **                                                                           **
 **     #####                         ##              ##                      **
 **    ##   ##            ##          ##              ##                      **
 **   ##     ##                       ##            ######                    **
 **   ##     ##  ##   ##  ##   #####  ##  ##   ####   ##    #####    #####    **
 **   ##     ##  ##   ##  ##  ##      ## ##   ##      ##   ##   ##  ##   ##   **
 **   ##  ## ##  ##   ##  ##  ##      ####     ###    ##   ######   ######    **
 **    ##  ###   ##   ##  ##  ##      ## ##      ##   ##   ##       ##        **
 **     #######   #####   ##   #####  ##  ##  ####    ##    #####   ##        **
 **           ##                                                    ##        **
 **                                                                           **
 **                                                ... make the atoms dance   **
 **                                                                           **
 **            Copyright (C) by CP2K developers group (2000 - 2016)           **
 **                                                                           **
 *******************************************************************************


 SCF PARAMETERS         Density guess:                                   RESTART
                        --------------------------------------------------------
                        max_scf:                                             200
                        max_scf_history:                                       0
                        max_diis:                                              4
                        --------------------------------------------------------
                        eps_scf:                                        5.00E-05
                        eps_scf_history:                                0.00E+00
                        eps_diis:                                       1.00E-01
                        eps_eigval:                                     1.00E-05
                        --------------------------------------------------------
                        level_shift [a.u.]:                                 0.00
                        --------------------------------------------------------
                        No outer SCF

 *******************************************************************************
 ***                     STARTING GEOMETRY OPTIMIZATION                      ***
 ***                                   BFGS                                  ***
 *******************************************************************************

 Spin 1

 Number of electrons:                                                         98
 Number of occupied orbitals:                                                 98
 Number of molecular orbitals:                                                98

 Spin 2

 Number of electrons:                                                         93
 Number of occupied orbitals:                                                 93
 Number of molecular orbitals:                                                93

 Number of orbital functions:                                                532
 Number of independent orbital functions:                                    532

 Extrapolation method: initial_guess

 *** WARNING in qs_initial_guess.F:262 :: User requested to restart the   ***
 *** wavefunction from the file named: dy_complex-RESTART.wfn. This file  ***
 *** does not exist. Please check the existence of the file or change     ***
 *** properly the value of the keyword WFN_RESTART_FILE_NAME. Calculation ***
 *** continues using ATOMIC GUESS.                                        ***



 SCF WAVEFUNCTION OPTIMIZATION

  ----------------------------------- OT ---------------------------------------
  Minimizer      : DIIS                : direct inversion
                                         in the iterative subspace
                                         using   7 DIIS vectors
                                         safer DIIS on
  Preconditioner : FULL_SINGLE_INVERSE : inversion of 
                                         H + eS - 2*(Sc)(c^T*H*c+const)(Sc)^T
  Precond_solver : DEFAULT
  stepsize       :    0.08000000                  energy_gap     :    0.08000000
  eps_taylor     :   0.10000E-15                  max_taylor     :             4
  ----------------------------------- OT ---------------------------------------

  Step     Update method      Time    Convergence         Total energy    Change
  ------------------------------------------------------------------------------
     1 OT DIIS     0.80E-01    2.9     0.02811948      -502.4641796377 -5.02E+02
     2 OT DIIS     0.80E-01    3.8     0.01864475      -507.0501626797 -4.59E+00
     3 OT DIIS     0.80E-01    3.8     0.01531077      -509.3739157436 -2.32E+00
     4 OT DIIS     0.80E-01    3.8     0.01085805      -513.0162558460 -3.64E+00
     5 OT DIIS     0.80E-01    3.8     0.00877488      -514.1403421724 -1.12E+00
     6 OT DIIS     0.80E-01    3.8     0.00567532      -515.5182774005 -1.38E+00
     7 OT DIIS     0.80E-01    3.8     0.00419054      -516.1084974122 -5.90E-01
     8 OT DIIS     0.80E-01    3.8     0.00308783      -516.5926161809 -4.84E-01
     9 OT DIIS     0.80E-01    3.8     0.00251668      -516.7262238631 -1.34E-01
    10 OT DIIS     0.80E-01    3.8     0.00209242      -516.8959124477 -1.70E-01
    11 OT DIIS     0.80E-01    3.8     0.00172055      -517.0272093543 -1.31E-01
    12 OT DIIS     0.80E-01    3.8     0.00156114      -517.1185657124 -9.14E-02
    13 OT DIIS     0.80E-01    3.8     0.00139953      -517.1905133913 -7.19E-02
    14 OT DIIS     0.80E-01    3.8     0.00134394      -517.2551187808 -6.46E-02
    15 OT DIIS     0.80E-01    4.7     0.00127650      -517.2929923190 -3.79E-02
    16 OT SD       0.80E-01    3.9     0.00126976      -517.3475840074 -5.46E-02
    17 OT SD       0.80E-01    3.8     0.00125707      -517.3606115696 -1.30E-02
    18 OT DIIS     0.80E-01    3.8     0.00124852      -517.3734109798 -1.28E-02
    19 OT SD       0.80E-01    3.8     0.00130577      -517.3972007506 -2.38E-02
    20 OT SD       0.80E-01    3.8     0.00128384      -517.4109238499 -1.37E-02
    21 OT SD       0.80E-01    3.8     0.00126836      -517.4242382468 -1.33E-02
    22 OT DIIS     0.80E-01    3.8     0.00125371      -517.4372389900 -1.30E-02
    23 OT SD       0.80E-01    3.8     0.00118779      -517.4913222164 -5.41E-02
    24 OT SD       0.80E-01    3.8     0.00115720      -517.5026237577 -1.13E-02
    25 OT DIIS     0.80E-01    4.1     0.00113535      -517.5134009303 -1.08E-02
    26 OT SD       0.80E-01    3.9     0.00112328      -517.5628246695 -4.94E-02
    27 OT SD       0.80E-01    3.8     0.00108272      -517.5728798693 -1.01E-02
    28 OT DIIS     0.80E-01    3.8     0.00105184      -517.5822671501 -9.39E-03
    29 OT DIIS     0.80E-01    3.8     0.00067981      -517.6952711790 -1.13E-01
    30 OT DIIS     0.80E-01   10.3     0.00064372      -517.7028784360 -7.61E-03
    31 OT DIIS     0.80E-01   10.7     0.00054345      -517.7278188552 -2.49E-02
    32 OT DIIS     0.80E-01   10.8     0.00047872      -517.7308880428 -3.07E-03
    33 OT DIIS     0.80E-01   10.8     0.00043051      -517.7400635851 -9.18E-03
    34 OT DIIS     0.80E-01    4.2     0.00038890      -517.7468572260 -6.79E-03
    35 OT DIIS     0.80E-01    3.8     0.00037989      -517.7505044710 -3.65E-03
    36 OT DIIS     0.80E-01    3.8     0.00036311      -517.7545309863 -4.03E-03
    37 OT DIIS     0.80E-01    3.8     0.00034445      -517.7613051141 -6.77E-03
    38 OT DIIS     0.80E-01    3.8     0.00033109      -517.7658284739 -4.52E-03
    39 OT DIIS     0.80E-01    3.9     0.00029533      -517.7769083515 -1.11E-02
    40 OT DIIS     0.80E-01    3.8     0.00027633      -517.7824999876 -5.59E-03
    41 OT DIIS     0.80E-01   11.0     0.00025487      -517.7890535635 -6.55E-03
    42 OT DIIS     0.80E-01    4.5     0.00024053      -517.7932562915 -4.20E-03
    43 OT DIIS     0.80E-01    4.6     0.00022686      -517.7974734542 -4.22E-03
    44 OT DIIS     0.80E-01   10.6     0.00021456      -517.8013925820 -3.92E-03
    45 OT DIIS     0.80E-01    3.8     0.00020179      -517.8047213426 -3.33E-03
    46 OT DIIS     0.80E-01    3.8     0.00019414      -517.8070711709 -2.35E-03
    47 OT DIIS     0.80E-01    3.8     0.00017866      -517.8107842055 -3.71E-03
    48 OT DIIS     0.80E-01    3.8     0.00016957      -517.8128544844 -2.07E-03
    49 OT DIIS     0.80E-01    3.8     0.00016126      -517.8152315871 -2.38E-03
    50 OT DIIS     0.80E-01    3.9     0.00015299      -517.8174305010 -2.20E-03
    51 OT DIIS     0.80E-01    3.8     0.00014678      -517.8191310903 -1.70E-03
    52 OT DIIS     0.80E-01    3.8     0.00013966      -517.8211688253 -2.04E-03
    53 OT DIIS     0.80E-01    3.8     0.00013384      -517.8229218506 -1.75E-03
    54 OT DIIS     0.80E-01    3.8     0.00012855      -517.8246118413 -1.69E-03
    55 OT DIIS     0.80E-01    3.8     0.00012392      -517.8260458600 -1.43E-03
    56 OT DIIS     0.80E-01    3.8     0.00011760      -517.8280711481 -2.03E-03
    57 OT DIIS     0.80E-01    3.8     0.00011245      -517.8297570392 -1.69E-03
    58 OT DIIS     0.80E-01    3.8     0.00010779      -517.8312816780 -1.52E-03
    59 OT DIIS     0.80E-01    3.8     0.00010215      -517.8329182095 -1.64E-03
    60 OT DIIS     0.80E-01    3.8     0.00009892      -517.8340315999 -1.11E-03
    61 OT DIIS     0.80E-01    3.8     0.00009504      -517.8351467237 -1.12E-03
    62 OT DIIS     0.80E-01    3.8     0.00009189      -517.8362103093 -1.06E-03
    63 OT DIIS     0.80E-01    3.8     0.00008909      -517.8371030290 -8.93E-04
    64 OT DIIS     0.80E-01    3.8     0.00008499      -517.8382556447 -1.15E-03
    65 OT DIIS     0.80E-01    3.8     0.00008151      -517.8392388932 -9.83E-04
    66 OT DIIS     0.80E-01    3.8     0.00007886      -517.8400086164 -7.70E-04
    67 OT DIIS     0.80E-01    3.8     0.00007662      -517.8406909519 -6.82E-04
    68 OT DIIS     0.80E-01    3.8     0.00007796      -517.8412303499 -5.39E-04
    69 OT DIIS     0.80E-01    3.8     0.00007113      -517.8422226292 -9.92E-04
    70 OT DIIS     0.80E-01    3.8     0.00006908      -517.8429322504 -7.10E-04
    71 OT DIIS     0.80E-01    3.8     0.00006765      -517.8433605866 -4.28E-04
    72 OT DIIS     0.80E-01    3.8     0.00006504      -517.8440618276 -7.01E-04
    73 OT DIIS     0.80E-01    3.8     0.00006292      -517.8447269219 -6.65E-04
    74 OT DIIS     0.80E-01    3.8     0.00006180      -517.8450953526 -3.68E-04
    75 OT DIIS     0.80E-01    3.8     0.00006037      -517.8455637199 -4.68E-04
    76 OT DIIS     0.80E-01    3.8     0.00005929      -517.8457967188 -2.33E-04
    77 OT DIIS     0.80E-01    3.8     0.00005791      -517.8461605556 -3.64E-04
    78 OT DIIS     0.80E-01    3.8     0.00005624      -517.8468799937 -7.19E-04
    79 OT DIIS     0.80E-01    3.8     0.00005407      -517.8473326330 -4.53E-04
    80 OT DIIS     0.80E-01    3.8     0.00005296      -517.8479578526 -6.25E-04
    81 OT DIIS     0.80E-01    3.8     0.00005289      -517.8482728480 -3.15E-04
    82 OT DIIS     0.80E-01    3.8     0.00004951      -517.8487610374 -4.88E-04

  *** SCF run converged in    82 steps ***


  Electronic density on regular grids:       -190.9999999949        0.0000000051
  Core density on regular grids:              193.9999999907       -0.0000000093
  Total charge density on r-space grids:        2.9999999958
  Total charge density g-space grids:           2.9999999958

  Overlap energy of the core charge distribution:               0.00000576685054
  Self energy of the core charge distribution:              -1180.77596130715415
  Core Hamiltonian energy:                                    347.34837455624154
  Hartree energy:                                             419.69591074725781
  Exchange-correlation energy:                               -104.11709080064119

  Total energy:                                              -517.84876103744546

  Integrated absolute spin density  :                               8.8699505966
  Ideal and single determinant S**2 :                    8.750000      10.427335

 ENERGY| Total FORCE_EVAL ( QS ) energy (a.u.):             -517.849212353078656


 --------  Informations at step =     0 ------------
  Optimization Method        =                 BFGS
  Total Energy               =      -517.8492123531
  Used time                  =              362.932
 ---------------------------------------------------

 --------------------------
 OPTIMIZATION STEP:      1
 --------------------------

  Step is scaled; Scaling factor =  0.73554

 Spin 1

 Number of electrons:                                                         98
 Number of occupied orbitals:                                                 98
 Number of molecular orbitals:                                                98

 Spin 2

 Number of electrons:                                                         93
 Number of occupied orbitals:                                                 93
 Number of molecular orbitals:                                                93

 Number of orbital functions:                                                532
 Number of independent orbital functions:                                    532

 Extrapolation method: ASPC


 SCF WAVEFUNCTION OPTIMIZATION

  ----------------------------------- OT ---------------------------------------
  Minimizer      : DIIS                : direct inversion
                                         in the iterative subspace
                                         using   7 DIIS vectors
                                         safer DIIS on
  Preconditioner : FULL_SINGLE_INVERSE : inversion of 
                                         H + eS - 2*(Sc)(c^T*H*c+const)(Sc)^T
  Precond_solver : DEFAULT
  stepsize       :    0.08000000                  energy_gap     :    0.08000000
  eps_taylor     :   0.10000E-15                  max_taylor     :             4
  ----------------------------------- OT ---------------------------------------

  Step     Update method      Time    Convergence         Total energy    Change
  ------------------------------------------------------------------------------
     1 OT DIIS     0.80E-01    2.8     0.00506119      -517.6309419339 -5.18E+02
     2 OT DIIS     0.80E-01    3.9     0.00368424      -517.7999615041 -1.69E-01
     3 OT DIIS     0.80E-01    3.8     0.00351532      -517.9101897089 -1.10E-01
     4 OT DIIS     0.80E-01    3.8     0.00390894      -517.9753659271 -6.52E-02
     5 OT DIIS     0.80E-01    3.8     0.00495939      -518.0028053189 -2.74E-02
     6 OT DIIS     0.80E-01    3.8     0.00161471      -518.0355608607 -3.28E-02
     7 OT DIIS     0.80E-01    3.8     0.00132148      -518.0458733608 -1.03E-02
     8 OT DIIS     0.80E-01    3.8     0.00056065      -518.0530013183 -7.13E-03
     9 OT DIIS     0.80E-01    3.8     0.00064361      -518.0559475019 -2.95E-03
    10 OT DIIS     0.80E-01    3.8     0.00036606      -518.0570312545 -1.08E-03
    11 OT DIIS     0.80E-01    3.8     0.00029501      -518.0583157884 -1.28E-03
    12 OT DIIS     0.80E-01    3.8     0.00031645      -518.0588191104 -5.03E-04
    13 OT DIIS     0.80E-01    3.8     0.00042453      -518.0591446807 -3.26E-04
    14 OT DIIS     0.80E-01    3.8     0.00024705      -518.0594978223 -3.53E-04
    15 OT DIIS     0.80E-01    3.8     0.00021849      -518.0599049397 -4.07E-04
    16 OT DIIS     0.80E-01    3.8     0.00017811      -518.0602198647 -3.15E-04
    17 OT DIIS     0.80E-01    3.8     0.00016143      -518.0606644684 -4.45E-04
    18 OT DIIS     0.80E-01    3.8     0.00015786      -518.0609001587 -2.36E-04
    19 OT DIIS     0.80E-01    3.8     0.00013654      -518.0612087635 -3.09E-04
    20 OT DIIS     0.80E-01    3.8     0.00013134      -518.0614988306 -2.90E-04
    21 OT DIIS     0.80E-01    3.8     0.00018255      -518.0616608097 -1.62E-04
    22 OT DIIS     0.80E-01    3.8     0.00013293      -518.0617945583 -1.34E-04
    23 OT DIIS     0.80E-01    3.8     0.00011082      -518.0619879845 -1.93E-04
    24 OT DIIS     0.80E-01    3.8     0.00009550      -518.0620999807 -1.12E-04
    25 OT DIIS     0.80E-01    3.8     0.00008455      -518.0622547885 -1.55E-04
    26 OT DIIS     0.80E-01    3.8     0.00008273      -518.0623380196 -8.32E-05
    27 OT DIIS     0.80E-01    3.8     0.00007321      -518.0624171739 -7.92E-05
    28 OT DIIS     0.80E-01    3.8     0.00006925      -518.0624984770 -8.13E-05
    29 OT DIIS     0.80E-01    3.8     0.00008938      -518.0625428908 -4.44E-05
    30 OT DIIS     0.80E-01    3.8     0.00007118      -518.0625763859 -3.35E-05
    31 OT DIIS     0.80E-01    3.8     0.00006057      -518.0626270973 -5.07E-05
    32 OT DIIS     0.80E-01    3.8     0.00005563      -518.0626600904 -3.30E-05
    33 OT DIIS     0.80E-01    3.8     0.00005044      -518.0627086212 -4.85E-05
    34 OT DIIS     0.80E-01    3.8     0.00004962      -518.0627417138 -3.31E-05

  *** SCF run converged in    34 steps ***


  Electronic density on regular grids:       -190.9999999953        0.0000000047
  Core density on regular grids:              193.9999999907       -0.0000000093
  Total charge density on r-space grids:        2.9999999954
  Total charge density g-space grids:           2.9999999954

  Overlap energy of the core charge distribution:               0.00000528871811
  Self energy of the core charge distribution:              -1180.77596130715415
  Core Hamiltonian energy:                                    347.54796672512492
  Hartree energy:                                             419.47418944101253
  Exchange-correlation energy:                               -104.30894186153989

  Total energy:                                              -518.06274171383848

  Integrated absolute spin density  :                               8.8597483711
  Ideal and single determinant S**2 :                    8.750000      10.536999

 ENERGY| Total FORCE_EVAL ( QS ) energy (a.u.):             -518.062769169287776


 --------  Informations at step =     1 ------------
  Optimization Method        =                 BFGS
  Total Energy               =      -518.0627691693
  Real energy change         =        -0.2135568162
  Predicted change in energy =        -0.3259120583
  Scaling factor             =         0.7355371291
  Step size                  =         0.5669178399
  Trust radius               =         0.5669178399
  Decrease in energy         =                  YES
  Used time                  =              134.452

  Convergence check :
  Max. step size             =         0.5669178399
  Conv. limit for step size  =         0.1000000000
  Convergence in step size   =                   NO
  RMS step size              =         0.1312788252
  Conv. limit for RMS step   =         0.0100000000
  Convergence in RMS step    =                   NO
  Max. gradient              =         0.1204486575
  Conv. limit for gradients  =         0.1000000000
  Conv. for gradients        =                   NO
  RMS gradient               =         0.0309238142
  Conv. limit for RMS grad.  =         0.0100000000
  Conv. for gradients        =                   NO
 ---------------------------------------------------

 --------------------------
 OPTIMIZATION STEP:      2
 --------------------------

 Spin 1

 Number of electrons:                                                         98
 Number of occupied orbitals:                                                 98
 Number of molecular orbitals:                                                98

 Spin 2

 Number of electrons:                                                         93
 Number of occupied orbitals:                                                 93
 Number of molecular orbitals:                                                93

 Number of orbital functions:                                                532
 Number of independent orbital functions:                                    532

 Extrapolation method: ASPC


 SCF WAVEFUNCTION OPTIMIZATION

  ----------------------------------- OT ---------------------------------------
  Minimizer      : DIIS                : direct inversion
                                         in the iterative subspace
                                         using   7 DIIS vectors
                                         safer DIIS on
  Preconditioner : FULL_SINGLE_INVERSE : inversion of 
                                         H + eS - 2*(Sc)(c^T*H*c+const)(Sc)^T
  Precond_solver : DEFAULT
  stepsize       :    0.08000000                  energy_gap     :    0.08000000
  eps_taylor     :   0.10000E-15                  max_taylor     :             4
  ----------------------------------- OT ---------------------------------------

  Step     Update method      Time    Convergence         Total energy    Change
  ------------------------------------------------------------------------------
     1 OT DIIS     0.80E-01    2.8     0.00560951      -517.6575848754 -5.18E+02
     2 OT DIIS     0.80E-01    3.8     0.00401375      -517.8698213628 -2.12E-01
     3 OT DIIS     0.80E-01    3.8     0.00270672      -518.0538929449 -1.84E-01
     4 OT DIIS     0.80E-01    3.8     0.00318636      -518.1400547585 -8.62E-02
     5 OT DIIS     0.80E-01    3.8     0.00218260      -518.1688136892 -2.88E-02
     6 OT DIIS     0.80E-01    3.8     0.00093674      -518.1851051368 -1.63E-02
     7 OT DIIS     0.80E-01    3.8     0.00091431      -518.1923634937 -7.26E-03
     8 OT DIIS     0.80E-01    3.8     0.00052730      -518.1955534958 -3.19E-03
     9 OT DIIS     0.80E-01    3.8     0.00036139      -518.1975171343 -1.96E-03
    10 OT DIIS     0.80E-01    3.8     0.00026905      -518.1986534922 -1.14E-03
    11 OT DIIS     0.80E-01    3.8     0.00023132      -518.1995755726 -9.22E-04
    12 OT DIIS     0.80E-01    3.8     0.00019781      -518.2001964558 -6.21E-04
    13 OT DIIS     0.80E-01    3.8     0.00020765      -518.2006743043 -4.78E-04
    14 OT DIIS     0.80E-01    3.8     0.00018889      -518.2009281399 -2.54E-04
    15 OT DIIS     0.80E-01    3.8     0.00015110      -518.2012908497 -3.63E-04
    16 OT DIIS     0.80E-01    3.8     0.00015342      -518.2016232567 -3.32E-04
    17 OT DIIS     0.80E-01    3.8     0.00012379      -518.2019224944 -2.99E-04
    18 OT DIIS     0.80E-01    3.8     0.00010200      -518.2021590030 -2.37E-04
    19 OT DIIS     0.80E-01    3.8     0.00008647      -518.2023668882 -2.08E-04
    20 OT DIIS     0.80E-01    3.8     0.00007484      -518.2024904367 -1.24E-04
    21 OT DIIS     0.80E-01    3.8     0.00007430      -518.2025877527 -9.73E-05
    22 OT DIIS     0.80E-01    3.8     0.00007866      -518.2026306923 -4.29E-05
    23 OT DIIS     0.80E-01    3.8     0.00005625      -518.2026761047 -4.54E-05
    24 OT DIIS     0.80E-01    3.8     0.00005447      -518.2027134285 -3.73E-05
    25 OT DIIS     0.80E-01    3.8     0.00004738      -518.2027377166 -2.43E-05

  *** SCF run converged in    25 steps ***


  Electronic density on regular grids:       -190.9999999956        0.0000000044
  Core density on regular grids:              193.9999999907       -0.0000000093
  Total charge density on r-space grids:        2.9999999951
  Total charge density g-space grids:           2.9999999951

  Overlap energy of the core charge distribution:               0.00000535881221
  Self energy of the core charge distribution:              -1180.77596130715415
  Core Hamiltonian energy:                                    349.83102464885923
  Hartree energy:                                             417.59413405463772
  Exchange-correlation energy:                               -104.85194047173539

  Total energy:                                              -518.20273771658049

  Integrated absolute spin density  :                               9.2193687136
  Ideal and single determinant S**2 :                    8.750000      10.686870

 ENERGY| Total FORCE_EVAL ( QS ) energy (a.u.):             -518.202762241750634


 --------  Informations at step =     2 ------------
  Optimization Method        =                 BFGS
  Total Energy               =      -518.2027622418
  Real energy change         =        -0.1399930725
  Predicted change in energy =        -0.1384966435
  Scaling factor             =         0.7355371291
  Step size                  =         0.2415012770
  Trust radius               =         0.5669178399
  Decrease in energy         =                  YES
  Used time                  =              100.091

  Convergence check :
  Max. step size             =         0.2415012770
  Conv. limit for step size  =         0.1000000000
  Convergence in step size   =                   NO
  RMS step size              =         0.0839701391
  Conv. limit for RMS step   =         0.0100000000
  Convergence in RMS step    =                   NO
  Max. gradient              =         0.0552316380
  Conv. limit for gradients  =         0.1000000000
  Conv. in gradients         =                  YES
  RMS gradient               =         0.0139680675
  Conv. limit for RMS grad.  =         0.0100000000
  Conv. for gradients        =                   NO
 ---------------------------------------------------

 --------------------------
 OPTIMIZATION STEP:      3
 --------------------------

 Spin 1

 Number of electrons:                                                         98
 Number of occupied orbitals:                                                 98
 Number of molecular orbitals:                                                98

 Spin 2

 Number of electrons:                                                         93
 Number of occupied orbitals:                                                 93
 Number of molecular orbitals:                                                93

 Number of orbital functions:                                                532
 Number of independent orbital functions:                                    532

 Extrapolation method: ASPC


 SCF WAVEFUNCTION OPTIMIZATION

  ----------------------------------- OT ---------------------------------------
  Minimizer      : DIIS                : direct inversion
                                         in the iterative subspace
                                         using   7 DIIS vectors
                                         safer DIIS on
  Preconditioner : FULL_SINGLE_INVERSE : inversion of 
                                         H + eS - 2*(Sc)(c^T*H*c+const)(Sc)^T
  Precond_solver : DEFAULT
  stepsize       :    0.08000000                  energy_gap     :    0.08000000
  eps_taylor     :   0.10000E-15                  max_taylor     :             4
  ----------------------------------- OT ---------------------------------------

  Step     Update method      Time    Convergence         Total energy    Change
  ------------------------------------------------------------------------------
     1 OT DIIS     0.80E-01    2.8     0.00564235      -517.7020865641 -5.18E+02
     2 OT DIIS     0.80E-01    3.8     0.00395513      -517.9155368089 -2.13E-01
     3 OT DIIS     0.80E-01    3.8     0.00249839      -518.0965287885 -1.81E-01
     4 OT DIIS     0.80E-01    3.8     0.00215855      -518.1781610706 -8.16E-02
     5 OT DIIS     0.80E-01    3.9     0.00148883      -518.2015205299 -2.34E-02
     6 OT DIIS     0.80E-01    3.9     0.00080037      -518.2173445307 -1.58E-02
     7 OT DIIS     0.80E-01    3.9     0.00068527      -518.2216376364 -4.29E-03
     8 OT DIIS     0.80E-01    3.9     0.00041183      -518.2234346034 -1.80E-03
     9 OT DIIS     0.80E-01    3.9     0.00029889      -518.2249019290 -1.47E-03
    10 OT DIIS     0.80E-01    3.9     0.00023697      -518.2255758803 -6.74E-04
    11 OT DIIS     0.80E-01    3.9     0.00017721      -518.2260834864 -5.08E-04
    12 OT DIIS     0.80E-01    3.9     0.00014974      -518.2263581543 -2.75E-04
    13 OT DIIS     0.80E-01    3.9     0.00014799      -518.2266092806 -2.51E-04
    14 OT DIIS     0.80E-01    3.9     0.00012856      -518.2267936857 -1.84E-04
    15 OT DIIS     0.80E-01    3.9     0.00011752      -518.2270085923 -2.15E-04
    16 OT DIIS     0.80E-01    3.9     0.00010833      -518.2271681423 -1.60E-04
    17 OT DIIS     0.80E-01    3.9     0.00008801      -518.2273241772 -1.56E-04
    18 OT DIIS     0.80E-01    3.9     0.00008130      -518.2274511257 -1.27E-04
    19 OT DIIS     0.80E-01    3.9     0.00007009      -518.2275549914 -1.04E-04
    20 OT DIIS     0.80E-01    3.9     0.00005983      -518.2276320887 -7.71E-05
    21 OT DIIS     0.80E-01    3.9     0.00005592      -518.2276893907 -5.73E-05
    22 OT DIIS     0.80E-01    3.9     0.00005238      -518.2277196651 -3.03E-05
    23 OT DIIS     0.80E-01    3.9     0.00004558      -518.2277511017 -3.14E-05

  *** SCF run converged in    23 steps ***


  Electronic density on regular grids:       -190.9999999953        0.0000000047
  Core density on regular grids:              193.9999999907       -0.0000000093
  Total charge density on r-space grids:        2.9999999954
  Total charge density g-space grids:           2.9999999954

  Overlap energy of the core charge distribution:               0.00000530405318
  Self energy of the core charge distribution:              -1180.77596130715415
  Core Hamiltonian energy:                                    350.78656565341095
  Hartree energy:                                             416.82954237963577
  Exchange-correlation energy:                               -105.06790313161559

  Total energy:                                              -518.22775110166981

  Integrated absolute spin density  :                               9.3101302728
  Ideal and single determinant S**2 :                    8.750000      10.735075

 ENERGY| Total FORCE_EVAL ( QS ) energy (a.u.):             -518.227773313950365


 --------  Informations at step =     3 ------------
  Optimization Method        =                 BFGS
  Total Energy               =      -518.2277733140
  Real energy change         =        -0.0250110722
  Predicted change in energy =        -0.0433227963
  Scaling factor             =         0.7355371291
  Step size                  =         0.1827800217
  Trust radius               =         0.5669178399
  Decrease in energy         =                  YES
  Used time                  =               93.347

  Convergence check :
  Max. step size             =         0.1827800217
  Conv. limit for step size  =         0.1000000000
  Convergence in step size   =                   NO
  RMS step size              =         0.0670119527
  Conv. limit for RMS step   =         0.0100000000
  Convergence in RMS step    =                   NO
  Max. gradient              =         0.0527243411
  Conv. limit for gradients  =         0.1000000000
  Conv. in gradients         =                  YES
  RMS gradient               =         0.0131421454
  Conv. limit for RMS grad.  =         0.0100000000
  Conv. for gradients        =                   NO
 ---------------------------------------------------

 --------------------------
 OPTIMIZATION STEP:      4
 --------------------------

 Spin 1

 Number of electrons:                                                         98
 Number of occupied orbitals:                                                 98
 Number of molecular orbitals:                                                98

 Spin 2

 Number of electrons:                                                         93
 Number of occupied orbitals:                                                 93
 Number of molecular orbitals:                                                93

 Number of orbital functions:                                                532
 Number of independent orbital functions:                                    532

 Extrapolation method: ASPC


 SCF WAVEFUNCTION OPTIMIZATION

  ----------------------------------- OT ---------------------------------------
  Minimizer      : DIIS                : direct inversion
                                         in the iterative subspace
                                         using   7 DIIS vectors
                                         safer DIIS on
  Preconditioner : FULL_SINGLE_INVERSE : inversion of 
                                         H + eS - 2*(Sc)(c^T*H*c+const)(Sc)^T
  Precond_solver : DEFAULT
  stepsize       :    0.08000000                  energy_gap     :    0.08000000
  eps_taylor     :   0.10000E-15                  max_taylor     :             4
  ----------------------------------- OT ---------------------------------------

  Step     Update method      Time    Convergence         Total energy    Change
  ------------------------------------------------------------------------------
     1 OT DIIS     0.80E-01    3.0     0.00477931      -517.8604392736 -5.18E+02
     2 OT DIIS     0.80E-01    3.9     0.00353455      -518.0173142368 -1.57E-01
     3 OT DIIS     0.80E-01    4.0     0.00318372      -518.1545992772 -1.37E-01
     4 OT DIIS     0.80E-01    3.9     0.00194680      -518.2121406732 -5.75E-02
     5 OT DIIS     0.80E-01    3.9     0.00196447      -518.2423576093 -3.02E-02
     6 OT DIIS     0.80E-01    3.9     0.00156463      -518.2511223710 -8.76E-03
     7 OT DIIS     0.80E-01    3.9     0.00110375      -518.2548442928 -3.72E-03
     8 OT DIIS     0.80E-01    3.9     0.00047484      -518.2587542734 -3.91E-03
     9 OT DIIS     0.80E-01    3.9     0.00037640      -518.2601890747 -1.43E-03
    10 OT DIIS     0.80E-01    3.9     0.00023723      -518.2609870424 -7.98E-04
    11 OT DIIS     0.80E-01    3.9     0.00019722      -518.2614372847 -4.50E-04
    12 OT DIIS     0.80E-01    3.9     0.00016758      -518.2616389983 -2.02E-04
    13 OT DIIS     0.80E-01    3.9     0.00015420      -518.2618151267 -1.76E-04
    14 OT DIIS     0.80E-01    3.9     0.00016264      -518.2618926742 -7.75E-05
    15 OT DIIS     0.80E-01    3.8     0.00015202      -518.2619689916 -7.63E-05
    16 OT DIIS     0.80E-01    3.8     0.00009625      -518.2620589786 -9.00E-05
    17 OT DIIS     0.80E-01    3.8     0.00008586      -518.2621414589 -8.25E-05
    18 OT DIIS     0.80E-01    3.8     0.00007552      -518.2622201248 -7.87E-05
    19 OT DIIS     0.80E-01    3.8     0.00007025      -518.2622828224 -6.27E-05
    20 OT DIIS     0.80E-01    3.8     0.00006233      -518.2623455386 -6.27E-05
    21 OT DIIS     0.80E-01    3.8     0.00006062      -518.2623946505 -4.91E-05
    22 OT DIIS     0.80E-01    3.8     0.00006710      -518.2624273854 -3.27E-05
    23 OT DIIS     0.80E-01    3.8     0.00006575      -518.2624541306 -2.67E-05
    24 OT DIIS     0.80E-01    3.8     0.00004621      -518.2624777921 -2.37E-05

  *** SCF run converged in    24 steps ***


  Electronic density on regular grids:       -190.9999999954        0.0000000046
  Core density on regular grids:              193.9999999907       -0.0000000093
  Total charge density on r-space grids:        2.9999999952
  Total charge density g-space grids:           2.9999999952

  Overlap energy of the core charge distribution:               0.00000463078732
  Self energy of the core charge distribution:              -1180.77596130715415
  Core Hamiltonian energy:                                    350.06528895182515
  Hartree energy:                                             417.35219688158230
  Exchange-correlation energy:                               -104.90400694913282

  Total energy:                                              -518.26247779209211

  Integrated absolute spin density  :                               9.3127129126
  Ideal and single determinant S**2 :                    8.750000      10.743680

 ENERGY| Total FORCE_EVAL ( QS ) energy (a.u.):             -518.262504371033515


 --------  Informations at step =     4 ------------
  Optimization Method        =                 BFGS
  Total Energy               =      -518.2625043710
  Real energy change         =        -0.0347310571
  Predicted change in energy =        -0.0330930739
  Scaling factor             =         0.7355371291
  Step size                  =         0.1508040851
  Trust radius               =         0.5669178399
  Decrease in energy         =                  YES
  Used time                  =               97.805

  Convergence check :
  Max. step size             =         0.1508040851
  Conv. limit for step size  =         0.1000000000
  Convergence in step size   =                   NO
  RMS step size              =         0.0581416007
  Conv. limit for RMS step   =         0.0100000000
  Convergence in RMS step    =                   NO
  Max. gradient              =         0.0216095560
  Conv. limit for gradients  =         0.1000000000
  Conv. in gradients         =                  YES
  RMS gradient               =         0.0072715140
  Conv. limit for RMS grad.  =         0.0100000000
  Conv. in RMS gradients     =                  YES
 ---------------------------------------------------

 --------------------------
 OPTIMIZATION STEP:      5
 --------------------------

 Spin 1

 Number of electrons:                                                         98
 Number of occupied orbitals:                                                 98
 Number of molecular orbitals:                                                98

 Spin 2

 Number of electrons:                                                         93
 Number of occupied orbitals:                                                 93
 Number of molecular orbitals:                                                93

 Number of orbital functions:                                                532
 Number of independent orbital functions:                                    532

 Extrapolation method: ASPC


 SCF WAVEFUNCTION OPTIMIZATION

  ----------------------------------- OT ---------------------------------------
  Minimizer      : DIIS                : direct inversion
                                         in the iterative subspace
                                         using   7 DIIS vectors
                                         safer DIIS on
  Preconditioner : FULL_SINGLE_INVERSE : inversion of 
                                         H + eS - 2*(Sc)(c^T*H*c+const)(Sc)^T
  Precond_solver : DEFAULT
  stepsize       :    0.08000000                  energy_gap     :    0.08000000
  eps_taylor     :   0.10000E-15                  max_taylor     :             4
  ----------------------------------- OT ---------------------------------------

  Step     Update method      Time    Convergence         Total energy    Change
  ------------------------------------------------------------------------------
     1 OT DIIS     0.80E-01    2.8     0.00456749      -517.9236539607 -5.18E+02
     2 OT DIIS     0.80E-01    3.8     0.00319113      -518.0605777430 -1.37E-01
     3 OT DIIS     0.80E-01    3.8     0.00244350      -518.1609339840 -1.00E-01
     4 OT DIIS     0.80E-01    3.8     0.00283352      -518.2123083280 -5.14E-02
     5 OT DIIS     0.80E-01    3.8     0.00113331      -518.2473844319 -3.51E-02
     6 OT DIIS     0.80E-01    3.8     0.00066881      -518.2599736404 -1.26E-02
     7 OT DIIS     0.80E-01    3.8     0.00072206      -518.2636458513 -3.67E-03
     8 OT DIIS     0.80E-01    3.8     0.00038804      -518.2652066953 -1.56E-03
     9 OT DIIS     0.80E-01    3.8     0.00025974      -518.2663406310 -1.13E-03
    10 OT DIIS     0.80E-01    3.8     0.00020539      -518.2668634626 -5.23E-04
    11 OT DIIS     0.80E-01    3.8     0.00016916      -518.2672166134 -3.53E-04
    12 OT DIIS     0.80E-01    3.8     0.00013694      -518.2674573718 -2.41E-04
    13 OT DIIS     0.80E-01   10.6     0.00013135      -518.2676107773 -1.53E-04
    14 OT DIIS     0.80E-01   11.2     0.00011484      -518.2677356210 -1.25E-04
    15 OT DIIS     0.80E-01   11.2     0.00010027      -518.2678518118 -1.16E-04
    16 OT DIIS     0.80E-01   11.2     0.00010745      -518.2679595807 -1.08E-04
    17 OT DIIS     0.80E-01    5.1     0.00008128      -518.2680683393 -1.09E-04
    18 OT DIIS     0.80E-01    3.8     0.00007564      -518.2681729426 -1.05E-04
    19 OT DIIS     0.80E-01    3.8     0.00006888      -518.2682682432 -9.53E-05
    20 OT DIIS     0.80E-01    4.2     0.00006327      -518.2683426741 -7.44E-05
    21 OT DIIS     0.80E-01    3.8     0.00006085      -518.2684202674 -7.76E-05
    22 OT DIIS     0.80E-01    3.8     0.00005962      -518.2684734802 -5.32E-05
    23 OT DIIS     0.80E-01    3.8     0.00005287      -518.2685223517 -4.89E-05
    24 OT DIIS     0.80E-01    3.8     0.00005391      -518.2685741522 -5.18E-05
    25 OT DIIS     0.80E-01    3.8     0.00004719      -518.2686067029 -3.26E-05

  *** SCF run converged in    25 steps ***


  Electronic density on regular grids:       -190.9999999952        0.0000000048
  Core density on regular grids:              193.9999999907       -0.0000000093
  Total charge density on r-space grids:        2.9999999954
  Total charge density g-space grids:           2.9999999954

  Overlap energy of the core charge distribution:               0.00000435068498
  Self energy of the core charge distribution:              -1180.77596130715415
  Core Hamiltonian energy:                                    349.29803900607766
  Hartree energy:                                             417.91909223839536
  Exchange-correlation energy:                               -104.70978099090667

  Total energy:                                              -518.26860670290284

  Integrated absolute spin density  :                               9.3176158844
  Ideal and single determinant S**2 :                    8.750000      10.748251

 ENERGY| Total FORCE_EVAL ( QS ) energy (a.u.):             -518.268650836049346


 --------  Informations at step =     5 ------------
  Optimization Method        =                 BFGS
  Total Energy               =      -518.2686508360
  Real energy change         =        -0.0061464650
  Predicted change in energy =        -0.0201783118
  Scaling factor             =         0.7355371291
  Step size                  =         0.1897283308
  Trust radius               =         0.5669178399
  Decrease in energy         =                  YES
  Used time                  =              130.444

  Convergence check :
  Max. step size             =         0.1897283308
  Conv. limit for step size  =         0.1000000000
  Convergence in step size   =                   NO
  RMS step size              =         0.0652611406
  Conv. limit for RMS step   =         0.0100000000
  Convergence in RMS step    =                   NO
  Max. gradient              =         0.0464032485
  Conv. limit for gradients  =         0.1000000000
  Conv. in gradients         =                  YES
  RMS gradient               =         0.0111402535
  Conv. limit for RMS grad.  =         0.0100000000
  Conv. for gradients        =                   NO
 ---------------------------------------------------

 --------------------------
 OPTIMIZATION STEP:      6
 --------------------------

 Spin 1

 Number of electrons:                                                         98
 Number of occupied orbitals:                                                 98
 Number of molecular orbitals:                                                98

 Spin 2

 Number of electrons:                                                         93
 Number of occupied orbitals:                                                 93
 Number of molecular orbitals:                                                93

 Number of orbital functions:                                                532
 Number of independent orbital functions:                                    532

 Extrapolation method: ASPC


 SCF WAVEFUNCTION OPTIMIZATION

  ----------------------------------- OT ---------------------------------------
  Minimizer      : DIIS                : direct inversion
                                         in the iterative subspace
                                         using   7 DIIS vectors
                                         safer DIIS on
  Preconditioner : FULL_SINGLE_INVERSE : inversion of 
                                         H + eS - 2*(Sc)(c^T*H*c+const)(Sc)^T
  Precond_solver : DEFAULT
  stepsize       :    0.08000000                  energy_gap     :    0.08000000
  eps_taylor     :   0.10000E-15                  max_taylor     :             4
  ----------------------------------- OT ---------------------------------------

  Step     Update method      Time    Convergence         Total energy    Change
  ------------------------------------------------------------------------------
     1 OT DIIS     0.80E-01    2.8     0.00422362      -518.0033010282 -5.18E+02
     2 OT DIIS     0.80E-01    3.8     0.00295373      -518.1180926161 -1.15E-01
     3 OT DIIS     0.80E-01    4.4     0.00261411      -518.1875720010 -6.95E-02
     4 OT DIIS     0.80E-01    3.8     0.00179812      -518.2341107758 -4.65E-02
     5 OT DIIS     0.80E-01    4.2     0.00199434      -518.2591867517 -2.51E-02
     6 OT DIIS     0.80E-01    5.7     0.00124098      -518.2705050072 -1.13E-02
     7 OT DIIS     0.80E-01    3.8     0.00098473      -518.2739985072 -3.49E-03
     8 OT DIIS     0.80E-01    3.8     0.00044129      -518.2773404671 -3.34E-03
     9 OT DIIS     0.80E-01    3.8     0.00034213      -518.2785999333 -1.26E-03
    10 OT DIIS     0.80E-01    3.8     0.00023183      -518.2792503026 -6.50E-04
    11 OT DIIS     0.80E-01    3.8     0.00019255      -518.2796408407 -3.91E-04
    12 OT DIIS     0.80E-01    3.8     0.00014961      -518.2798440159 -2.03E-04
    13 OT DIIS     0.80E-01    3.8     0.00015500      -518.2800141209 -1.70E-04
    14 OT DIIS     0.80E-01    4.0     0.00013799      -518.2800830413 -6.89E-05
    15 OT DIIS     0.80E-01    3.9     0.00013241      -518.2801615369 -7.85E-05
    16 OT DIIS     0.80E-01    3.8     0.00008991      -518.2802410312 -7.95E-05
    17 OT DIIS     0.80E-01    3.9     0.00007862      -518.2803157438 -7.47E-05
    18 OT DIIS     0.80E-01    4.1     0.00007158      -518.2803857686 -7.00E-05
    19 OT DIIS     0.80E-01    3.8     0.00006501      -518.2804346930 -4.89E-05
    20 OT DIIS     0.80E-01    3.8     0.00005718      -518.2804867669 -5.21E-05
    21 OT DIIS     0.80E-01    3.8     0.00005570      -518.2805293091 -4.25E-05
    22 OT DIIS     0.80E-01    3.8     0.00005941      -518.2805523734 -2.31E-05
    23 OT DIIS     0.80E-01    3.8     0.00005556      -518.2805812051 -2.88E-05
    24 OT DIIS     0.80E-01    3.8     0.00004307      -518.2805996377 -1.84E-05

  *** SCF run converged in    24 steps ***


  Electronic density on regular grids:       -190.9999999950        0.0000000050
  Core density on regular grids:              193.9999999907       -0.0000000093
  Total charge density on r-space grids:        2.9999999957
  Total charge density g-space grids:           2.9999999957

  Overlap energy of the core charge distribution:               0.00000476272980
  Self energy of the core charge distribution:              -1180.77596130715415
  Core Hamiltonian energy:                                    349.75334299413385
  Hartree energy:                                             417.55619482519438
  Exchange-correlation energy:                               -104.81418091258180

  Total energy:                                              -518.28059963767805

  Integrated absolute spin density  :                               9.3326035732
  Ideal and single determinant S**2 :                    8.750000      10.756893

 ENERGY| Total FORCE_EVAL ( QS ) energy (a.u.):             -518.280623572424247


 --------  Informations at step =     6 ------------
  Optimization Method        =                 BFGS
  Total Energy               =      -518.2806235724
  Real energy change         =        -0.0119727364
  Predicted change in energy =        -0.0163351287
  Scaling factor             =         0.7355371291
  Step size                  =         0.1183081932
  Trust radius               =         0.5669178399
  Decrease in energy         =                  YES
  Used time                  =              101.727

  Convergence check :
  Max. step size             =         0.1183081932
  Conv. limit for step size  =         0.1000000000
  Convergence in step size   =                   NO
  RMS step size              =         0.0371480389
  Conv. limit for RMS step   =         0.0100000000
  Convergence in RMS step    =                   NO
  Max. gradient              =         0.0224707670
  Conv. limit for gradients  =         0.1000000000
  Conv. in gradients         =                  YES
  RMS gradient               =         0.0069661182
  Conv. limit for RMS grad.  =         0.0100000000
  Conv. in RMS gradients     =                  YES
 ---------------------------------------------------

 --------------------------
 OPTIMIZATION STEP:      7
 --------------------------

 Spin 1

 Number of electrons:                                                         98
 Number of occupied orbitals:                                                 98
 Number of molecular orbitals:                                                98

 Spin 2

 Number of electrons:                                                         93
 Number of occupied orbitals:                                                 93
 Number of molecular orbitals:                                                93

 Number of orbital functions:                                                532
 Number of independent orbital functions:                                    532

 Extrapolation method: ASPC


 SCF WAVEFUNCTION OPTIMIZATION

  ----------------------------------- OT ---------------------------------------
  Minimizer      : DIIS                : direct inversion
                                         in the iterative subspace
                                         using   7 DIIS vectors
                                         safer DIIS on
  Preconditioner : FULL_SINGLE_INVERSE : inversion of 
                                         H + eS - 2*(Sc)(c^T*H*c+const)(Sc)^T
  Precond_solver : DEFAULT
  stepsize       :    0.08000000                  energy_gap     :    0.08000000
  eps_taylor     :   0.10000E-15                  max_taylor     :             4
  ----------------------------------- OT ---------------------------------------

  Step     Update method      Time    Convergence         Total energy    Change
  ------------------------------------------------------------------------------
     1 OT DIIS     0.80E-01    2.8     0.00396481      -518.0285891724 -5.18E+02
     2 OT DIIS     0.80E-01    3.8     0.00279866      -518.1340710479 -1.05E-01
     3 OT DIIS     0.80E-01    3.8     0.00201696      -518.2194469952 -8.54E-02
     4 OT DIIS     0.80E-01    3.8     0.00168062      -518.2532636377 -3.38E-02
     5 OT DIIS     0.80E-01    3.8     0.00143847      -518.2690552795 -1.58E-02
     6 OT DIIS     0.80E-01    3.8     0.00074175      -518.2792739154 -1.02E-02
     7 OT DIIS     0.80E-01    3.8     0.00081602      -518.2816560534 -2.38E-03
     8 OT DIIS     0.80E-01    3.8     0.00036196      -518.2837886340 -2.13E-03
     9 OT DIIS     0.80E-01    3.8     0.00030109      -518.2845421491 -7.54E-04
    10 OT DIIS     0.80E-01    3.8     0.00020515      -518.2851075845 -5.65E-04
    11 OT DIIS     0.80E-01    3.8     0.00015270      -518.2853823514 -2.75E-04
    12 OT DIIS     0.80E-01    9.8     0.00012336      -518.2855763525 -1.94E-04
    13 OT DIIS     0.80E-01   10.2     0.00012872      -518.2856769370 -1.01E-04
    14 OT DIIS     0.80E-01   10.2     0.00009827      -518.2857444286 -6.75E-05
    15 OT DIIS     0.80E-01   10.1     0.00010451      -518.2858258933 -8.15E-05
    16 OT DIIS     0.80E-01   10.1     0.00008056      -518.2858735780 -4.77E-05
    17 OT DIIS     0.80E-01   10.2     0.00007098      -518.2859332057 -5.96E-05
    18 OT DIIS     0.80E-01   10.1     0.00006348      -518.2859882478 -5.50E-05
    19 OT DIIS     0.80E-01   10.2     0.00005751      -518.2860320610 -4.38E-05
    20 OT DIIS     0.80E-01    4.2     0.00005238      -518.2860873476 -5.53E-05
    21 OT DIIS     0.80E-01    3.8     0.00005487      -518.2861301440 -4.28E-05
    22 OT DIIS     0.80E-01    3.8     0.00005003      -518.2861645234 -3.44E-05
    23 OT DIIS     0.80E-01    3.8     0.00004961      -518.2862069020 -4.24E-05

  *** SCF run converged in    23 steps ***


  Electronic density on regular grids:       -190.9999999946        0.0000000054
  Core density on regular grids:              193.9999999907       -0.0000000093
  Total charge density on r-space grids:        2.9999999960
  Total charge density g-space grids:           2.9999999960

  Overlap energy of the core charge distribution:               0.00000513635412
  Self energy of the core charge distribution:              -1180.77596130715415
  Core Hamiltonian energy:                                    350.20027407366666
  Hartree energy:                                             417.22128271403102
  Exchange-correlation energy:                               -104.93180751888198

  Total energy:                                              -518.28620690198431

  Integrated absolute spin density  :                               9.3485806750
  Ideal and single determinant S**2 :                    8.750000      10.757563

 ENERGY| Total FORCE_EVAL ( QS ) energy (a.u.):             -518.286227043551321


 --------  Informations at step =     7 ------------
  Optimization Method        =                 BFGS
  Total Energy               =      -518.2862270436
  Real energy change         =        -0.0056034711
  Predicted change in energy =        -0.0093978871
  Scaling factor             =         0.7355371291
  Step size                  =         0.0930714382
  Trust radius               =         0.5669178399
  Decrease in energy         =                  YES
  Used time                  =              143.232

  Convergence check :
  Max. step size             =         0.0930714382
  Conv. limit for step size  =         0.1000000000
  Convergence in step size   =                  YES
  RMS step size              =         0.0272529272
  Conv. limit for RMS step   =         0.0100000000
  Convergence in RMS step    =                   NO
  Max. gradient              =         0.0201172842
  Conv. limit for gradients  =         0.1000000000
  Conv. in gradients         =                  YES
  RMS gradient               =         0.0054365179
  Conv. limit for RMS grad.  =         0.0100000000
  Conv. in RMS gradients     =                  YES
 ---------------------------------------------------

 --------------------------
 OPTIMIZATION STEP:      8
 --------------------------

 Spin 1

 Number of electrons:                                                         98
 Number of occupied orbitals:                                                 98
 Number of molecular orbitals:                                                98

 Spin 2

 Number of electrons:                                                         93
 Number of occupied orbitals:                                                 93
 Number of molecular orbitals:                                                93

 Number of orbital functions:                                                532
 Number of independent orbital functions:                                    532

 Extrapolation method: ASPC


 SCF WAVEFUNCTION OPTIMIZATION

  ----------------------------------- OT ---------------------------------------
  Minimizer      : DIIS                : direct inversion
                                         in the iterative subspace
                                         using   7 DIIS vectors
                                         safer DIIS on
  Preconditioner : FULL_SINGLE_INVERSE : inversion of 
                                         H + eS - 2*(Sc)(c^T*H*c+const)(Sc)^T
  Precond_solver : DEFAULT
  stepsize       :    0.08000000                  energy_gap     :    0.08000000
  eps_taylor     :   0.10000E-15                  max_taylor     :             4
  ----------------------------------- OT ---------------------------------------

  Step     Update method      Time    Convergence         Total energy    Change
  ------------------------------------------------------------------------------
     1 OT DIIS     0.80E-01    8.9     0.00293275      -518.1456344978 -5.18E+02
     2 OT DIIS     0.80E-01    3.8     0.00211348      -518.2026070362 -5.70E-02
     3 OT DIIS     0.80E-01    3.8     0.00280336      -518.2381066770 -3.55E-02
     4 OT DIIS     0.80E-01    3.8     0.00257012      -518.2545714088 -1.65E-02
     5 OT DIIS     0.80E-01    3.8     0.00121186      -518.2700163381 -1.54E-02
     6 OT DIIS     0.80E-01    3.8     0.00055900      -518.2815886378 -1.16E-02
     7 OT DIIS     0.80E-01    3.8     0.00049507      -518.2844084906 -2.82E-03
     8 OT DIIS     0.80E-01    3.8     0.00030222      -518.2855046055 -1.10E-03
     9 OT DIIS     0.80E-01    3.8     0.00022462      -518.2861703865 -6.66E-04
    10 OT DIIS     0.80E-01    3.8     0.00019593      -518.2864192857 -2.49E-04
    11 OT DIIS     0.80E-01    3.9     0.00013926      -518.2866783215 -2.59E-04
    12 OT DIIS     0.80E-01    3.8     0.00021124      -518.2867663924 -8.81E-05
    13 OT DIIS     0.80E-01    3.8     0.00013447      -518.2868500747 -8.37E-05
    14 OT DIIS     0.80E-01    3.8     0.00008973      -518.2869340934 -8.40E-05
    15 OT DIIS     0.80E-01    3.8     0.00008433      -518.2870124097 -7.83E-05
    16 OT DIIS     0.80E-01    3.8     0.00007996      -518.2870736759 -6.13E-05
    17 OT DIIS     0.80E-01    3.8     0.00007362      -518.2871450180 -7.13E-05
    18 OT DIIS     0.80E-01    3.8     0.00007125      -518.2872169303 -7.19E-05
    19 OT DIIS     0.80E-01    3.8     0.00006709      -518.2872788364 -6.19E-05
    20 OT DIIS     0.80E-01    3.8     0.00007159      -518.2873443291 -6.55E-05
    21 OT DIIS     0.80E-01    3.8     0.00007180      -518.2873819989 -3.77E-05
    22 OT DIIS     0.80E-01    3.8     0.00005966      -518.2874487469 -6.67E-05
    23 OT DIIS     0.80E-01    3.8     0.00005798      -518.2875234839 -7.47E-05
    24 OT DIIS     0.80E-01    3.8     0.00005627      -518.2875955253 -7.20E-05
    25 OT DIIS     0.80E-01    3.8     0.00005383      -518.2876508834 -5.54E-05
    26 OT DIIS     0.80E-01    3.8     0.00005238      -518.2877216990 -7.08E-05
    27 OT DIIS     0.80E-01    3.8     0.00005126      -518.2877678457 -4.61E-05
    28 OT DIIS     0.80E-01    3.8     0.00005221      -518.2878335715 -6.57E-05
    29 OT DIIS     0.80E-01    3.8     0.00005325      -518.2878661497 -3.26E-05
    30 OT DIIS     0.80E-01    3.8     0.00004848      -518.2879201412 -5.40E-05

  *** SCF run converged in    30 steps ***


  Electronic density on regular grids:       -190.9999999941        0.0000000059
  Core density on regular grids:              193.9999999907       -0.0000000093
  Total charge density on r-space grids:        2.9999999966
  Total charge density g-space grids:           2.9999999966

  Overlap energy of the core charge distribution:               0.00000510665249
  Self energy of the core charge distribution:              -1180.77596130715415
  Core Hamiltonian energy:                                    350.05417850031381
  Hartree energy:                                             417.33686597636392
  Exchange-correlation energy:                               -104.90300841734211

  Total energy:                                              -518.28792014116607

  Integrated absolute spin density  :                               9.3595426607
  Ideal and single determinant S**2 :                    8.750000      10.762620

 ENERGY| Total FORCE_EVAL ( QS ) energy (a.u.):             -518.287980865868917


 --------  Informations at step =     8 ------------
  Optimization Method        =                 BFGS
  Total Energy               =      -518.2879808659
  Real energy change         =        -0.0017538223
  Predicted change in energy =        -0.0063787938
  Scaling factor             =         0.7355371291
  Step size                  =         0.0890925883
  Trust radius               =         0.5669178399
  Decrease in energy         =                  YES
  Used time                  =              125.141

  Convergence check :
  Max. step size             =         0.0890925883
  Conv. limit for step size  =         0.1000000000
  Convergence in step size   =                  YES
  RMS step size              =         0.0301018968
  Conv. limit for RMS step   =         0.0100000000
  Convergence in RMS step    =                   NO
  Max. gradient              =         0.0331163896
  Conv. limit for gradients  =         0.1000000000
  Conv. in gradients         =                  YES
  RMS gradient               =         0.0057532795
  Conv. limit for RMS grad.  =         0.0100000000
  Conv. in RMS gradients     =                  YES
 ---------------------------------------------------

 --------------------------
 OPTIMIZATION STEP:      9
 --------------------------

 Spin 1

 Number of electrons:                                                         98
 Number of occupied orbitals:                                                 98
 Number of molecular orbitals:                                                98

 Spin 2

 Number of electrons:                                                         93
 Number of occupied orbitals:                                                 93
 Number of molecular orbitals:                                                93

 Number of orbital functions:                                                532
 Number of independent orbital functions:                                    532

 Extrapolation method: ASPC


 SCF WAVEFUNCTION OPTIMIZATION

  ----------------------------------- OT ---------------------------------------
  Minimizer      : DIIS                : direct inversion
                                         in the iterative subspace
                                         using   7 DIIS vectors
                                         safer DIIS on
  Preconditioner : FULL_SINGLE_INVERSE : inversion of 
                                         H + eS - 2*(Sc)(c^T*H*c+const)(Sc)^T
  Precond_solver : DEFAULT
  stepsize       :    0.08000000                  energy_gap     :    0.08000000
  eps_taylor     :   0.10000E-15                  max_taylor     :             4
  ----------------------------------- OT ---------------------------------------

  Step     Update method      Time    Convergence         Total energy    Change
  ------------------------------------------------------------------------------
     1 OT DIIS     0.80E-01    2.8     0.00247518      -518.1943374221 -5.18E+02
     2 OT DIIS     0.80E-01    3.8     0.00172117      -518.2344328532 -4.01E-02
     3 OT DIIS     0.80E-01    3.8     0.00183689      -518.2610924895 -2.67E-02
     4 OT DIIS     0.80E-01    3.8     0.00159468      -518.2712085870 -1.01E-02
     5 OT DIIS     0.80E-01    3.8     0.00081241      -518.2839248448 -1.27E-02
     6 OT DIIS     0.80E-01    3.8     0.00067589      -518.2882052836 -4.28E-03
     7 OT DIIS     0.80E-01    3.8     0.00035257      -518.2900204184 -1.82E-03
     8 OT DIIS     0.80E-01    3.8     0.00025419      -518.2909780212 -9.58E-04
     9 OT DIIS     0.80E-01    3.8     0.00020235      -518.2913825040 -4.04E-04
    10 OT DIIS     0.80E-01    3.8     0.00015566      -518.2916301274 -2.48E-04
    11 OT DIIS     0.80E-01    3.8     0.00011959      -518.2918345030 -2.04E-04
    12 OT DIIS     0.80E-01    3.8     0.00014778      -518.2919503202 -1.16E-04
    13 OT DIIS     0.80E-01    3.8     0.00010890      -518.2920338445 -8.35E-05
    14 OT DIIS     0.80E-01    3.8     0.00009178      -518.2921195018 -8.57E-05
    15 OT DIIS     0.80E-01    3.8     0.00008462      -518.2921759069 -5.64E-05
    16 OT DIIS     0.80E-01    3.8     0.00007041      -518.2922578487 -8.19E-05
    17 OT DIIS     0.80E-01    3.8     0.00006750      -518.2923219924 -6.41E-05
    18 OT DIIS     0.80E-01    3.8     0.00005986      -518.2923953553 -7.34E-05
    19 OT DIIS     0.80E-01    3.8     0.00005133      -518.2924482120 -5.29E-05
    20 OT DIIS     0.80E-01    3.8     0.00005494      -518.2924980454 -4.98E-05
    21 OT DIIS     0.80E-01    3.8     0.00005156      -518.2925211598 -2.31E-05
    22 OT DIIS     0.80E-01    3.8     0.00004111      -518.2925481639 -2.70E-05

  *** SCF run converged in    22 steps ***


  Electronic density on regular grids:       -190.9999999949        0.0000000051
  Core density on regular grids:              193.9999999906       -0.0000000094
  Total charge density on r-space grids:        2.9999999958
  Total charge density g-space grids:           2.9999999958

  Overlap energy of the core charge distribution:               0.00000487437048
  Self energy of the core charge distribution:              -1180.77596130715415
  Core Hamiltonian energy:                                    349.81719959602003
  Hartree energy:                                             417.50450619246999
  Exchange-correlation energy:                               -104.83829751965473

  Total energy:                                              -518.29254816394837

  Integrated absolute spin density  :                               9.3769222582
  Ideal and single determinant S**2 :                    8.750000      10.764024

 ENERGY| Total FORCE_EVAL ( QS ) energy (a.u.):             -518.292568281437070


 --------  Informations at step =     9 ------------
  Optimization Method        =                 BFGS
  Total Energy               =      -518.2925682814
  Real energy change         =        -0.0045874156
  Predicted change in energy =        -0.0056536181
  Scaling factor             =         0.7355371291
  Step size                  =         0.0887927001
  Trust radius               =         0.5669178399
  Decrease in energy         =                  YES
  Used time                  =               88.318

  Convergence check :
  Max. step size             =         0.0887927001
  Conv. limit for step size  =         0.1000000000
  Convergence in step size   =                  YES
  RMS step size              =         0.0251471789
  Conv. limit for RMS step   =         0.0100000000
  Convergence in RMS step    =                   NO
  Max. gradient              =         0.0150299304
  Conv. limit for gradients  =         0.1000000000
  Conv. in gradients         =                  YES
  RMS gradient               =         0.0042364089
  Conv. limit for RMS grad.  =         0.0100000000
  Conv. in RMS gradients     =                  YES
 ---------------------------------------------------

 --------------------------
 OPTIMIZATION STEP:     10
 --------------------------

 Spin 1

 Number of electrons:                                                         98
 Number of occupied orbitals:                                                 98
 Number of molecular orbitals:                                                98

 Spin 2

 Number of electrons:                                                         93
 Number of occupied orbitals:                                                 93
 Number of molecular orbitals:                                                93

 Number of orbital functions:                                                532
 Number of independent orbital functions:                                    532

 Extrapolation method: ASPC


 SCF WAVEFUNCTION OPTIMIZATION

  ----------------------------------- OT ---------------------------------------
  Minimizer      : DIIS                : direct inversion
                                         in the iterative subspace
                                         using   7 DIIS vectors
                                         safer DIIS on
  Preconditioner : FULL_SINGLE_INVERSE : inversion of 
                                         H + eS - 2*(Sc)(c^T*H*c+const)(Sc)^T
  Precond_solver : DEFAULT
  stepsize       :    0.08000000                  energy_gap     :    0.08000000
  eps_taylor     :   0.10000E-15                  max_taylor     :             4
  ----------------------------------- OT ---------------------------------------

  Step     Update method      Time    Convergence         Total energy    Change
  ------------------------------------------------------------------------------
     1 OT DIIS     0.80E-01    2.8     0.00208962      -518.2194869993 -5.18E+02
     2 OT DIIS     0.80E-01    3.8     0.00148410      -518.2485950874 -2.91E-02
     3 OT DIIS     0.80E-01    3.8     0.00128215      -518.2706407887 -2.20E-02
     4 OT DIIS     0.80E-01    3.8     0.00100181      -518.2802830438 -9.64E-03
     5 OT DIIS     0.80E-01    3.8     0.00057452      -518.2881536252 -7.87E-03
     6 OT DIIS     0.80E-01    3.8     0.00048837      -518.2902694935 -2.12E-03
     7 OT DIIS     0.80E-01    3.8     0.00022987      -518.2914290211 -1.16E-03
     8 OT DIIS     0.80E-01    3.8     0.00023062      -518.2918518062 -4.23E-04
     9 OT DIIS     0.80E-01    3.8     0.00013176      -518.2920673409 -2.16E-04
    10 OT DIIS     0.80E-01    3.8     0.00009031      -518.2922824606 -2.15E-04
    11 OT DIIS     0.80E-01    3.8     0.00007853      -518.2923922035 -1.10E-04
    12 OT DIIS     0.80E-01    3.8     0.00006979      -518.2924506361 -5.84E-05
    13 OT DIIS     0.80E-01    3.8     0.00005905      -518.2925063815 -5.57E-05
    14 OT DIIS     0.80E-01    3.8     0.00005567      -518.2925612173 -5.48E-05
    15 OT DIIS     0.80E-01    3.8     0.00005081      -518.2926039949 -4.28E-05
    16 OT DIIS     0.80E-01    3.8     0.00004666      -518.2926593695 -5.54E-05

  *** SCF run converged in    16 steps ***


  Electronic density on regular grids:       -190.9999999946        0.0000000054
  Core density on regular grids:              193.9999999907       -0.0000000093
  Total charge density on r-space grids:        2.9999999960
  Total charge density g-space grids:           2.9999999960

  Overlap energy of the core charge distribution:               0.00000509798123
  Self energy of the core charge distribution:              -1180.77596130715415
  Core Hamiltonian energy:                                    349.94634081426676
  Hartree energy:                                             417.39887931674434
  Exchange-correlation energy:                               -104.86192329137498

  Total energy:                                              -518.29265936953675

  Integrated absolute spin density  :                               9.3689887881
  Ideal and single determinant S**2 :                    8.750000      10.762172

 ENERGY| Total FORCE_EVAL ( QS ) energy (a.u.):             -518.292693130516341


 --------  Informations at step =    10 ------------
  Optimization Method        =                 BFGS
  Total Energy               =      -518.2926931305
  Real energy change         =        -0.0001248491
  Predicted change in energy =        -0.0039204327
  Scaling factor             =         0.7355371291
  Step size                  =         0.0709271079
  Trust radius               =         0.5669178399
  Decrease in energy         =                  YES
  Used time                  =               65.438

  Convergence check :
  Max. step size             =         0.0709271079
  Conv. limit for step size  =         0.1000000000
  Convergence in step size   =                  YES
  RMS step size              =         0.0228048629
  Conv. limit for RMS step   =         0.0100000000
  Convergence in RMS step    =                   NO
  Max. gradient              =         0.0208559796
  Conv. limit for gradients  =         0.1000000000
  Conv. in gradients         =                  YES
  RMS gradient               =         0.0054396593
  Conv. limit for RMS grad.  =         0.0100000000
  Conv. in RMS gradients     =                  YES
 ---------------------------------------------------

 --------------------------
 OPTIMIZATION STEP:     11
 --------------------------

 Spin 1

 Number of electrons:                                                         98
 Number of occupied orbitals:                                                 98
 Number of molecular orbitals:                                                98

 Spin 2

 Number of electrons:                                                         93
 Number of occupied orbitals:                                                 93
 Number of molecular orbitals:                                                93

 Number of orbital functions:                                                532
 Number of independent orbital functions:                                    532

 Extrapolation method: ASPC


 SCF WAVEFUNCTION OPTIMIZATION

  ----------------------------------- OT ---------------------------------------
  Minimizer      : DIIS                : direct inversion
                                         in the iterative subspace
                                         using   7 DIIS vectors
                                         safer DIIS on
  Preconditioner : FULL_SINGLE_INVERSE : inversion of 
                                         H + eS - 2*(Sc)(c^T*H*c+const)(Sc)^T
  Precond_solver : DEFAULT
  stepsize       :    0.08000000                  energy_gap     :    0.08000000
  eps_taylor     :   0.10000E-15                  max_taylor     :             4
  ----------------------------------- OT ---------------------------------------

  Step     Update method      Time    Convergence         Total energy    Change
  ------------------------------------------------------------------------------
     1 OT DIIS     0.80E-01    2.8     0.00176853      -518.2410801703 -5.18E+02
     2 OT DIIS     0.80E-01    3.8     0.00128011      -518.2621252962 -2.10E-02
     3 OT DIIS     0.80E-01    3.8     0.00126405      -518.2778001861 -1.57E-02
     4 OT DIIS     0.80E-01    3.8     0.00073014      -518.2856298009 -7.83E-03
     5 OT DIIS     0.80E-01    3.8     0.00039432      -518.2913513875 -5.72E-03
     6 OT DIIS     0.80E-01    3.8     0.00038942      -518.2928946102 -1.54E-03
     7 OT DIIS     0.80E-01    3.8     0.00021455      -518.2934597689 -5.65E-04
     8 OT DIIS     0.80E-01    3.8     0.00016335      -518.2938502973 -3.91E-04
     9 OT DIIS     0.80E-01    3.8     0.00012705      -518.2939932119 -1.43E-04
    10 OT DIIS     0.80E-01    3.8     0.00009388      -518.2941713604 -1.78E-04
    11 OT DIIS     0.80E-01    3.8     0.00009147      -518.2942635698 -9.22E-05
[...]
 flops   13 x    2 x    5               229167640       0.0%    100.0%      0.0%
 flops   13 x   13 x    2               233729028       0.0%    100.0%      0.0%
 flops   32 x   32 x    2               234123264       0.0%    100.0%      0.0%
 flops    2 x   32 x   32               234123264       0.0%    100.0%      0.0%
 flops   32 x    2 x   32               234123264       0.0%    100.0%      0.0%
 flops   44 x   29 x   29               240155960       0.0%    100.0%      0.0%
 flops   47 x   29 x   29               256530230       0.0%    100.0%      0.0%
 flops   29 x   29 x   29               311106084       0.0%    100.0%      0.0%
 flops   13 x   42 x   29               364340340       0.0%    100.0%      0.0%
 flops   42 x   13 x   29               364340340       0.0%    100.0%      0.0%
 flops    5 x   29 x   42               405106800       0.0%    100.0%      0.0%
 flops   42 x   29 x    5               405106800       0.0%    100.0%      0.0%
 flops   29 x   32 x   44               430287616       0.0%    100.0%      0.0%
 flops   32 x   29 x   44               430287616       0.0%    100.0%      0.0%
 flops   44 x   32 x   44               432424960       0.0%    100.0%      0.0%
 flops   42 x   42 x   32               432956160       0.0%    100.0%      0.0%
 flops   32 x    2 x   49               445148928       0.0%    100.0%      0.0%
 flops    2 x   32 x   49               447124608       0.0%    100.0%      0.0%
 flops   29 x   32 x   47               459625408       0.0%    100.0%      0.0%
 flops   32 x   29 x   47               459625408       0.0%    100.0%      0.0%
 flops   47 x   32 x   44               461908480       0.0%    100.0%      0.0%
 flops   44 x   32 x   47               461908480       0.0%    100.0%      0.0%
 flops   47 x   32 x   47               493402240       0.0%    100.0%      0.0%
 flops   13 x   32 x   32               503193600       0.0%    100.0%      0.0%
 flops   42 x    5 x   32               515424000       0.0%    100.0%      0.0%
 flops    5 x   42 x   32               515424000       0.0%    100.0%      0.0%
 flops   44 x   29 x   32               529999360       0.0%    100.0%      0.0%
 flops   44 x   32 x   29               529999360       0.0%    100.0%      0.0%
 flops   49 x    2 x   49               542990952       0.0%    100.0%      0.0%
 flops   49 x    2 x   32               549521280       0.0%    100.0%      0.0%
 flops   49 x   32 x    2               549521280       0.0%    100.0%      0.0%
 flops   47 x   32 x   29               566135680       0.0%    100.0%      0.0%
 flops   47 x   29 x   32               566135680       0.0%    100.0%      0.0%
 flops   29 x   29 x   32               686578944       0.0%    100.0%      0.0%
 flops   29 x   32 x   29               686578944       0.0%    100.0%      0.0%
 flops   32 x   29 x   29               686578944       0.0%    100.0%      0.0%
 flops    5 x   29 x    5               765608700       0.0%    100.0%      0.0%
 flops    5 x   13 x   29               783010150       0.0%    100.0%      0.0%
 flops   49 x   29 x   44               785551536       0.0%    100.0%      0.0%
 flops   44 x   29 x   49               785551536       0.0%    100.0%      0.0%
 flops   13 x    5 x   29               790829130       0.0%    100.0%      0.0%
 flops   49 x   29 x   47               839111868       0.0%    100.0%      0.0%
 flops   47 x   29 x   49               839111868       0.0%    100.0%      0.0%
 flops   42 x   32 x   42               926876160       0.0%    100.0%      0.0%
 flops   13 x    2 x   13               957608080       0.0%    100.0%      0.0%
 flops    5 x    5 x   32              1048104000       0.0%    100.0%      0.0%
 flops   32 x   32 x   29              1515208704       0.0%    100.0%      0.0%
 flops   29 x   32 x   32              1515208704       0.0%    100.0%      0.0%
 flops   32 x   29 x   32              1515208704       0.0%    100.0%      0.0%
 flops   13 x   29 x   42              1579916520       0.0%    100.0%      0.0%
 flops   42 x   29 x   13              1579916520       0.0%    100.0%      0.0%
 flops   29 x   29 x   49              1967152824       0.0%    100.0%      0.0%
 flops   13 x   42 x   32              2010153600       0.0%    100.0%      0.0%
 flops   42 x   13 x   32              2010153600       0.0%    100.0%      0.0%
 flops   42 x   32 x    5              2206848000       0.0%    100.0%      0.0%
 flops    5 x   32 x   42              2206848000       0.0%    100.0%      0.0%
 flops   49 x   29 x   29              2407017690       0.0%    100.0%      0.0%
 flops   32 x   32 x   44              3094085632       0.0%    100.0%      0.0%
 flops   32 x   32 x   47              3305046016       0.0%    100.0%      0.0%
 flops   13 x   13 x   29              3389070906       0.0%    100.0%      0.0%
 flops    5 x   29 x   13              3394040520       0.0%    100.0%      0.0%
 flops   13 x   29 x    5              3394040520       0.0%    100.0%      0.0%
 flops   44 x   32 x   32              3801374720       0.0%    100.0%      0.0%
 flops   47 x   32 x   32              4060559360       0.0%    100.0%      0.0%
 flops    5 x   32 x    5              4171324800       0.0%    100.0%      0.0%
 flops   29 x   32 x   49              4312655424       0.0%    100.0%      0.0%
 flops   32 x   29 x   49              4312655424       0.0%    100.0%      0.0%
 flops    5 x   13 x   32              4320056000       0.0%    100.0%      0.0%
 flops   49 x   32 x   44              4334077440       0.0%    100.0%      0.0%
 flops   44 x   32 x   49              4334077440       0.0%    100.0%      0.0%
 flops   13 x    5 x   32              4363195200       0.0%    100.0%      0.0%
 flops   47 x   32 x   49              4629582720       0.0%    100.0%      0.0%
 flops   49 x   32 x   47              4629582720       0.0%    100.0%      0.0%
 flops   49 x   29 x   32              5312039040       0.0%    100.0%      0.0%
 flops   49 x   32 x   29              5312039040       0.0%    100.0%      0.0%
 flops   49 x   29 x   49              7873368804       0.0%    100.0%      0.0%
 flops   42 x   32 x   13              8606707200       0.0%    100.0%      0.0%
 flops   13 x   32 x   42              8606707200       0.0%    100.0%      0.0%
 flops   13 x   29 x   13             14183494000       0.0%    100.0%      0.0%
 flops   32 x   32 x   32             14581825536       0.0%    100.0%      0.0%
 flops    5 x   32 x   13             18490343040       0.0%    100.0%      0.0%
 flops   13 x   32 x    5             18490343040       0.0%    100.0%      0.0%
 flops   13 x   13 x   32             18698322240       0.0%    100.0%      0.0%
 flops   32 x   32 x   49             31011176448       0.0%    100.0%      0.0%
 flops   49 x   32 x   32             38100142080       0.0%    100.0%      0.0%
 flops   49 x   32 x   49             43439276160       0.0%    100.0%      0.0%
 flops   13 x   32 x   13             77266691840       0.0%    100.0%      0.0%
 flops total                       421.961447E+09       0.0%    100.0%      0.0%
 flops max/rank                     18.165064E+09       0.0%    100.0%      0.0%
 matmuls inhomo. stacks                         0       0.0%      0.0%      0.0%
 matmuls total                           36652630       0.0%    100.0%      0.0%
 number of processed stacks              10681121       0.0%    100.0%      0.0%
 average stack size                                     0.0       3.4       0.0
 marketing flops                   475.063255E+09
 -------------------------------------------------------------------------------
 # multiplications                          30954
 max memory usage/rank             370.384896E+06
 # max total images/rank                        1
 # MPI messages exchanged                74908680
 # MPI messages filtered                        0
 MPI messages size (elements):
  total size                        28.402375E+09
  min size                           0.000000E+00
  max size                           2.401000E+03
  average size                     379.160004E+00
 MPI breakdown and total messages size (bytes):
             size <=      128            55774390                  5125440
       128 < size <=     8192             5215330              24448708400
      8192 < size <=    32768            13918960             202761996800
     32768 < size <=   131072                   0                        0
    131072 < size <=  4194304                   0                        0
   4194304 < size <= 16777216                   0                        0
  16777216 < size                               0                        0
 -------------------------------------------------------------------------------

 MEMORY| Estimated peak process memory [MiB]                                 354

 -------------------------------------------------------------------------------
 -                                                                             -
 -                         MESSAGE PASSING PERFORMANCE                         -
 -                                                                             -
 -------------------------------------------------------------------------------

 ROUTINE             CALLS  TOT TIME [s]  AVE VOLUME [Bytes]  PERFORMANCE [MB/s]
 MP_Group                5         0.000
 MP_Bcast            48108         0.967              43798.             2179.77
 MP_Allreduce       202473       111.380                124.                0.22
 MP_Sync               664         0.009
 MP_Alltoall        136620       392.906            2840217.              987.59
 MP_ISendRecv       669600         8.219              72192.             5881.22
 MP_Wait           4628628       455.670
 MP_comm_split         660         1.239
 MP_ISend          2078981        11.437              43442.             7896.86
 MP_IRecv          2078981         2.112              43265.            42588.80
 MP_Recv              1290         0.069              32889.              619.03
 MP_Memory         1223876         0.228
 -------------------------------------------------------------------------------


 -------------------------------------------------------------------------------
 -                                                                             -
 -                           R E F E R E N C E S                               -
 -                                                                             -
 -------------------------------------------------------------------------------
 
 CP2K version 4.1, the CP2K developers group (2016).
 CP2K is freely available from https://www.cp2k.org/ .

 Schuett, Ole; Messmer, Peter; Hutter, Juerg; VandeVondele, Joost. 
 Electronic Structure Calculations on Graphics Processing Units, John Wiley & Sons, Ltd, 173-190 (2016). 
 GPU-Accelerated Sparse Matrix-Matrix Multiplication for Linear Scaling Density Functional Theory.
 http://dx.doi.org/10.1002/9781118670712.ch8


 Borstnik, U; VandeVondele, J; Weber, V; Hutter, J. 
 PARALLEL COMPUTING, 40 (5-6), 47-58 (2014). 
 Sparse matrix multiplication: The distributed block-compressed sparse
 row library.
 http://dx.doi.org/10.1016/j.parco.2014.03.012


 Hutter, J; Iannuzzi, M; Schiffmann, F; VandeVondele, J. 
 WILEY INTERDISCIPLINARY REVIEWS-COMPUTATIONAL MOLECULAR SCIENCE, 4 (1), 15-25 (2014). 
 CP2K: atomistic simulations of condensed matter systems.
 http://dx.doi.org/10.1002/wcms.1159


 VandeVondele, J; Hutter, J. 
 JOURNAL OF CHEMICAL PHYSICS, 127 (11), 114105 (2007). 
 Gaussian basis sets for accurate calculations on molecular systems in
 gas and condensed phases.
 http://dx.doi.org/10.1063/1.2770708


 Krack, M. 
 THEORETICAL CHEMISTRY ACCOUNTS, 114 (1-3), 145-152 (2005). 
 Pseudopotentials for H to Kr optimized for gradient-corrected
 exchange-correlation functionals.
 http://dx.doi.org/10.1007/s00214-005-0655-y


 VandeVondele, J; Krack, M; Mohamed, F; Parrinello, M; Chassaing, T;
 Hutter, J. COMPUTER PHYSICS COMMUNICATIONS, 167 (2), 103-128 (2005). 
 QUICKSTEP: Fast and accurate density functional calculations using a
 mixed Gaussian and plane waves approach.
 http://dx.doi.org/10.1016/j.cpc.2004.12.014


 Frigo, M; Johnson, SG. 
 PROCEEDINGS OF THE IEEE, 93 (2), 216-231 (2005). 
 The design and implementation of FFTW3.
 http://dx.doi.org/10.1109/JPROC.2004.840301


 Kolafa, J. 
 JOURNAL OF COMPUTATIONAL CHEMISTRY, 25 (3), 335-342 (2004). 
 Time-reversible always stable predictor-corrector method for molecular dynamics of polarizable molecules.
 http://dx.doi.org/10.1002/jcc.10385


 VandeVondele, J; Hutter, J. 
 JOURNAL OF CHEMICAL PHYSICS, 118 (10), 4365-4369 (2003). 
 An efficient orbital transformation method for electronic structure
 calculations.
 http://dx.doi.org/10.1063/1.1543154


 Hartwigsen, C; Goedecker, S; Hutter, J. 
 PHYSICAL REVIEW B, 58 (7), 3641-3662 (1998). 
 Relativistic separable dual-space Gaussian pseudopotentials from H to Rn.
 http://dx.doi.org/10.1103/PhysRevB.58.3641


 Lippert, G; Hutter, J; Parrinello, M. 
 MOLECULAR PHYSICS, 92 (3), 477-487 (1997). 
 A hybrid Gaussian and plane wave density functional scheme.
 http://dx.doi.org/10.1080/002689797170220


 Perdew, JP; Burke, K; Ernzerhof, M. 
 PHYSICAL REVIEW LETTERS, 77 (18), 3865-3868 (1996). 
 Generalized gradient approximation made simple.
 http://dx.doi.org/10.1103/PhysRevLett.77.3865


 Goedecker, S; Teter, M; Hutter, J. 
 PHYSICAL REVIEW B, 54 (3), 1703-1710 (1996). 
 Separable dual-space Gaussian pseudopotentials.
 http://dx.doi.org/10.1103/PhysRevB.54.1703


 -------------------------------------------------------------------------------
 -                                                                             -
 -                                T I M I N G                                  -
 -                                                                             -
 -------------------------------------------------------------------------------
 SUBROUTINE                       CALLS  ASD         SELF TIME        TOTAL TIME
                                MAXIMUM       AVERAGE  MAXIMUM  AVERAGE  MAXIMUM
 CP2K                                 1  1.0    0.126    0.152 2997.919 2997.921
 cp_geo_opt                           1  2.0    0.001    0.013 2995.768 2995.781
 geoopt_bfgs                          1  3.0    0.008    0.010 2995.768 2995.768
 cp_eval_at                          35  4.0    0.006    0.010 2993.705 2993.709
 qs_forces                           34  5.0    0.005    0.006 2919.097 2919.125
 qs_energies                         35  6.0    0.002    0.002 2883.986 2884.009
 scf_env_do_scf                      35  7.0    0.002    0.004 2826.035 2826.063
 scf_env_do_scf_inner_loop          663  8.0    0.030    0.065 2703.003 2703.075
 rebuild_ks_matrix                  697  9.8    0.004    0.005 1935.361 1935.656
 qs_ks_build_kohn_sham_matrix       697 10.8    0.156    0.200 1935.357 1935.652
 qs_ks_update_qs_env                698  9.0    0.025    0.035 1835.262 1835.514
 pw_transfer                      24440 13.6    2.457    2.996 1474.057 1599.545
 fft_wrap_pw1pw2                  23046 14.6    0.336    0.411 1461.189 1591.721
 fft_wrap_pw1pw2_250              14676 15.8  134.979  159.120 1400.186 1506.026
 fft3d_ps                         23046 16.6  547.223  592.672 1103.535 1349.679
 qs_vxc_create                      697 11.8    0.031    0.050 1213.308 1225.636
 xc_vxc_pw_create                   697 12.8   22.279   40.629 1213.277 1225.611
 mp_alltoall_z22v                 23046 18.6  403.710  802.823  403.710  802.823
 rs_pw_transfer                   11229 13.4    0.226    0.319  776.702  799.700
 qs_rho_update_rho                  698  9.0    0.009    0.014  733.735  733.915
 calculate_rho_elec                1396 10.0    8.073   18.761  733.726  733.909
 density_rs2pw                     1396 11.0    0.075    0.087  663.098  673.964
 xc_rho_set_and_dset_create         697 13.8   16.009   18.054  544.921  595.851
 sum_up_and_integrate               697 11.8    4.734    5.598  591.544  593.957
 integrate_v_rspace                1394 12.8    4.495   18.973  586.804  590.802
 potential_pw2rs                   1394 13.8    0.176    0.205  567.583  577.218
 mp_waitany                      717285 15.4  287.548  481.843  287.548  481.843
 yz_to_x                           8403 17.4   57.597   71.055  267.951  464.836
 x_to_yz                           9063 18.0   78.466   87.491  268.589  446.553
 rs_pw_transfer_RS2PW_250          1431 13.0  115.504  144.219  256.046  281.255
 rs_pw_transfer_PW2RS_250          1428 15.7  120.062  139.444  257.209  277.668
 qs_scf_new_mos                     663  9.0    0.003    0.005  267.308  267.490
 qs_scf_loop_do_ot                  663 10.0    0.002    0.003  267.305  267.487
 ot_scf_mini                        663 11.0    0.020    0.024  257.791  257.954
 dbcsr_multiply_generic           30954 14.1    0.398    0.414  234.606  240.407
 mp_waitall_1                   3911343 17.1  179.718  219.145  179.718  219.145
 ot_mini                            663 12.0    0.003    0.004  168.123  168.355
 qs_ot_get_derivative              1326 13.0    0.011    0.011  146.185  146.543
 rs_pw_transfer_PW2RS_90           1394 15.8   16.434   19.631   66.326  138.793
 pw_scatter_p                     11851 17.2  119.125  130.734  119.125  130.734
 init_scf_loop                       35  8.0    0.003    0.003  122.838  122.868
 pw_derive                         8364 14.3  102.498  116.638  102.498  116.638
 pw_gather_p                      11195 16.0   99.660  106.802   99.660  106.802
 qs_ks_update_qs_env_forces          34  6.0    0.000    0.000  102.605  102.628
 xc_functional_eval                 697 14.8    0.012    0.021   41.620   90.706
 pbe_lsd_eval                       697 15.8   41.608   90.693   41.608   90.693
 rs_grid_zero                      8441 12.9   83.511   90.449   83.511   90.449
 make_m2s                         61908 15.1    0.455    0.472   69.526   80.527
 make_images                      61908 16.1    6.298    6.565   67.773   78.831
 multiply_cannon                  30954 15.1    2.765    2.937   68.210   78.746
 mp_sum_d                         45783 14.8   33.783   77.784   33.783   77.784
 pw_axpy                          15377 13.0   59.278   71.918   59.278   71.918
 make_images_sizes                61908 17.1    0.037    0.039   57.138   68.920
 mp_alltoall_i44                  61908 18.1   57.101   68.884   57.101   68.884
 rs_pw_transfer_PW2RS_30           1394 15.8   11.345   16.879   64.377   68.186
 fft_wrap_pw1pw2_90                2790 15.4    2.780    3.980   37.860   66.010
 qs_ot_get_p                       1396 11.9    0.006    0.006   64.639   65.328
 pw_copy                          13278 14.6   57.368   63.530   57.368   63.530
 qs_ot_get_derivative_taylor        726 14.0    0.018    0.020   62.657   62.878
 rs_pw_transfer_RS2PW_30           1396 13.0   11.713   17.422   59.141   61.559
 mp_sum_l                         55146 15.3   46.857   60.012   46.857   60.012
 -------------------------------------------------------------------------------

 The number of warnings for this run is : 1
 
 -------------------------------------------------------------------------------
  **** **** ******  **  PROGRAM ENDED AT                 2023-04-08 18:26:00.988
 ***** ** ***  *** **   PROGRAM RAN ON            node154.pri.kelvin2.alces.netw
 **    ****   ******    PROGRAM RAN BY                                  40265864
 ***** **    ** ** **   PROGRAM PROCESS ID                                 11849
  **** **  *******  **  PROGRAM STOPPED IN /mnt/scratch2/users/40265864/MSc_ML_M
                                           M/ln_replacements/xyz/Dy_L18_L20_L20_
                                           MeO_O/geometry_optimisation_2/run-6
