      51
 i =        1, E =      -516.0841571804
  C         1.0852016967       -0.8930806277       -0.0725781166
  O        -0.3505106043       -0.8249969847        0.3415826701
 Dy        -0.7462706465        0.8970550351        1.8096211124
  O         0.4154021776        1.8238762122        0.2114027548
  O        -1.8900535728       -0.8648692869        2.5327808317
  C        -3.1185356136       -0.6730000000        3.2643060463
  C        -4.3193227895       -1.6012682188        2.9094165275
  C        -2.9129313880       -0.0316019490        4.6503984549
  C        -1.8204730608        1.0062327083        4.9386643668
  O        -1.4334311046        1.7805730969        3.7761528671
  C        -1.6162440099        1.5411635860        6.4022329496
  O        -2.3634948968        0.4960275496        0.5229372459
  C        -2.6640252392        1.4248193539       -0.5462153253
  C        -2.9956874985        0.9172809671       -2.0101345340
  C        -3.1139032467        2.8101253645       -0.0712113201
  C        -2.7354294357        3.3043070530        1.3232995574
  O        -1.3754651400        3.0624497346        1.7264559322
  C        -3.5189209497        4.5399485441        2.0258046440
  F        -4.9468844912        4.4340863458        1.7373855144
  F        -2.9818018198        5.7265407195        1.3680031000
  F        -3.1338049038        4.6227815831        3.4224966982
  O         0.5420804051       -0.6244528344        2.7864869401
  C         1.3146762384       -0.4522115976        3.9936016708
  C         1.5208454786       -1.6213967674        5.0005211018
  C         2.3533075031        0.6777720670        3.9407497461
  C         2.1391340057        1.8180267782        2.9610484296
  O         0.7813869782        2.2620263828        2.7466505171
  C         3.3070119610        2.8993549486        2.6936434005
  F         4.6035674349        2.2292236882        2.6931732309
  F         3.0803581483        3.7024191365        3.8931402241
  F         2.9669326718        3.6728966303        1.5062189547
  H         1.8698417677       -0.9065767017        0.8239563073
  H         1.2057824026       -1.8461497663       -0.7767677110
  H         1.2989760751        0.0632583369       -0.7578509184
  H        -0.0490891189        2.1512376338       -0.6730096447
  H         1.4096642730        2.1579937687        0.2990070056
  H        -4.6356644687       -1.8413558597        4.0378086930
  H        -5.1824355436       -0.9999894410        2.3478069229
  H        -3.7404258888       -2.4781046994        2.3071747532
  H        -3.6296754930       -0.3585602647        5.5330567782
  H        -1.6653360602        0.6966416693        7.2257388630
  H        -0.6581170039        2.2449925102        6.2883378882
  H        -2.6042621582        2.2202922824        6.3103812977
  H        -3.0063425823       -0.2543004318       -1.7525583732
  H        -4.1351845843        1.3000798711       -1.9215654363
  H        -2.3613756004        1.3138914654       -2.9355819328
  H        -3.8234309573        3.4753377998       -0.7454032823
  H         1.4777484560       -1.3254277379        6.1378320658
  H         0.7608525551       -2.4420379244        4.6157910343
  H         2.6243590913       -1.8812968032        4.6238033741
  H         3.3220078730        0.6390236057        4.6185668366
      51
 i =        2, E =      -516.4821271918
  C         1.1043867861       -0.9162290558       -0.0788246002
  O        -0.3737483381       -0.8557383113        0.3005309870
 Dy        -0.7366214499        0.9044136088        1.7971255960
  O         0.4317432385        1.7962366095        0.1832738290
  O        -1.8930380277       -0.8981135667        2.5158753382
  C        -3.1069509489       -0.7649459516        3.2851204192
  C        -4.2842657912       -1.7284436246        2.8494585728
  C        -2.9246949090       -0.0385403901        4.6456377298
  C        -1.8710456416        1.0348693763        4.9779715258
  O        -1.4091886381        1.7855100558        3.8179932950
  C        -1.6442987457        1.5331231965        6.4824650448
  O        -2.4037809765        0.4831144326        0.4714031991
  C        -2.7023506622        1.4264151962       -0.5735461655
  C        -2.9546188909        0.9198201815       -2.0940705303
  C        -3.1260680769        2.8073645245       -0.0780486793
  C        -2.7214240245        3.3773051526        1.2869231644
  O        -1.3886801657        3.1034028720        1.7515835121
  C        -3.5475438000        4.6101721228        2.0472118966
  F        -5.0029298653        4.4318047623        1.7172270649
  F        -3.1260693374        5.9765407195        1.5292345730
  F        -3.1442754172        4.6588740720        3.4766243267
  O         0.5446983183       -0.6416550678        2.7948865547
  C         1.3432551016       -0.4711006280        3.9750793970
  C         1.5165278639       -1.6347977900        5.0097060704
  C         2.3618069390        0.6756043451        3.9443362435
  C         2.1304411938        1.8347775661        3.0032707782
  O         0.7975026410        2.3005105766        2.7322317920
  C         3.3225239447        2.9190325631        2.6906336681
  F         4.6410049791        2.2171505607        2.6823429334
  F         3.1066284209        3.7337395427        3.9276997836
  F         2.9585263441        3.6940092559        1.4665935240
  H         1.9032710493       -0.9078298555        0.8573552736
  H         1.2242035505       -1.8922392630       -0.8128503369
  H         1.3056127352        0.0798352526       -0.7829224941
  H        -0.0403116934        2.1909982851       -0.7177210153
  H         1.4423610467        2.2019422753        0.2850164976
  H        -4.6539555675       -1.8755083354        4.0372158928
  H        -5.1769647890       -1.0115264508        2.3336552243
  H        -3.6404855961       -2.6250612552        2.1917031183
  H        -3.6509804739       -0.3671110172        5.5659736826
  H        -1.7170169449        0.6598422457        7.3303741556
  H        -0.6489919707        2.2555680284        6.3080795563
  H        -2.6446903587        2.2587563475        6.3574732513
  H        -2.9993059287       -0.2858388538       -1.7775215883
  H        -4.1405278618        1.3028561931       -1.9668438371
  H        -2.3012298829        1.3327850644       -3.0669628035
  H        -3.8537712403        3.4998133644       -0.7676618507
  H         1.4819438257       -1.3113965658        6.1789452018
  H         0.7353642827       -2.4789033422        4.6143791093
  H         2.6569948955       -1.9061233932        4.6360822382
  H         3.3604187788        0.6359664871        4.6398378380
      51
 i =        3, E =      -514.6814131698
  C         1.1017335604       -0.9159224466       -0.0815344856
  O        -0.3748264634       -0.8519755554        0.3091263880
 Dy        -0.7659964673        0.9023193045        1.7959943226
  O         0.4318528074        1.8068537227        0.1801364115
  O        -1.8855245411       -0.8978414598        2.5155097305
  C        -3.0980329393       -0.7799182283        3.2744348066
  C        -4.2481402748       -1.7967099018        2.7966264041
  C        -2.9301869710       -0.0469698835        4.6435723795
  C        -1.8717445909        1.0375913648        4.9842823168
  O        -1.4054040682        1.7827425625        3.8212042695
  C        -1.6560761947        1.5305947212        6.5019793625
  O        -2.3852717127        0.4823180058        0.4841750943
  C        -2.7010939706        1.4221950780       -0.5766608741
  C        -2.9482903380        0.9221974501       -2.1054316614
  C        -3.1261455257        2.8133587604       -0.0784063837
  C        -2.7234557550        3.3971252568        1.2908040761
  O        -1.3880011546        3.0913259178        1.7537680986
  C        -3.5596209139        4.6540035976        2.0611426560
  F        -5.0049122897        4.4305420908        1.7219414183
  F        -3.3172958854        6.1624222466        1.7792345730
  F        -3.1497344580        4.6552339683        3.4820585661
  O         0.5394149188       -0.6361625320        2.7897365792
  C         1.3450594468       -0.4790741730        3.9768478179
  C         1.5178536326       -1.6348011561        5.0126176083
  C         2.3619617442        0.6751457487        3.9443140937
  C         2.1338916518        1.8426278709        3.0030095584
  O         0.7922169588        2.2969788152        2.7273925322
  C         3.3242220824        2.9183310594        2.6931473848
  F         4.6403378142        2.2159049189        2.6825672915
  F         3.1019832102        3.7427275008        3.9190374527
  F         2.9563081895        3.6892633657        1.4698917002
  H         1.9002422744       -0.9089342304        0.8542265853
  H         1.2258876115       -1.8917180075       -0.8102907699
  H         1.3063482547        0.0781130301       -0.7813538647
  H        -0.0404280879        2.1889924392       -0.7174662621
  H         1.4406849369        2.2004045129        0.2849860320
  H        -4.6479208882       -1.8919894915        4.0247150363
  H        -5.1668242150       -1.0276440827        2.3252943433
  H        -3.4809045842       -2.7457872497        2.0121162229
  H        -3.6511211378       -0.3675287140        5.5668188300
  H        -1.7230434361        0.6595646535        7.3419684212
  H        -0.6553966999        2.2496330205        6.3146119785
  H        -2.6474043783        2.2591685439        6.3649351004
  H        -2.9942837946       -0.2821833872       -1.7838036527
  H        -4.1363384261        1.3034649391       -1.9755887369
  H        -2.2950357558        1.3347582774       -3.0924934290
  H        -3.8531924928        3.5008745881       -0.7674961514
  H         1.4816806100       -1.3131764465        6.1766533256
  H         0.7368666105       -2.4766211708        4.6160348984
  H         2.6555177294       -1.9068767207        4.6374486667
  H         3.3582536209        0.6366265826        4.6385348791
      51
 i =        4, E =      -517.1311197223
  C         1.1244900157       -0.9438898610       -0.0975075855
  O        -0.3886512262       -0.8873321869        0.2696899011
 Dy        -0.7520957081        0.9167439997        1.7985311092
  O         0.4522246905        1.7866651928        0.1395182824
  O        -1.8796246790       -0.9594192729        2.4970262822
  C        -3.0517396869       -0.8343889027        3.2794607321
  C        -4.2268069661       -1.8486042529        2.7967235502
  C        -2.9527786684       -0.0624765801        4.6443469510
  C        -1.9136783587        1.0368943918        5.0336992558
  O        -1.3871972248        1.7893934747        3.9036507658
  C        -1.7146119511        1.5171237664        6.5921269521
  O        -2.4550826771        0.4760024149        0.3973858307
  C        -2.7041246732        1.4497667424       -0.6191697736
  C        -2.8894051436        0.9326761729       -2.1986749089
  C        -3.1438208043        2.8134717631       -0.0770704793
  C        -2.7337615429        3.5180797097        1.2642191560
  O        -1.4279616896        3.1480824500        1.7689207667
  C        -3.5514652047        4.8313074486        2.0359696716
  F        -5.0264658292        4.4237353296        1.7193350371
  F        -3.2902836727        6.3198364653        1.6521259223
  F        -3.1833851406        4.6940889034        3.5105218119
  O         0.5644365067       -0.6739325473        2.8119225574
  C         1.3539647403       -0.4730687198        3.9726892778
  C         1.5160976329       -1.6422177966        5.0008727599
  C         2.3755091834        0.6706757306        3.9478289557
  C         2.1239059219        1.8399486605        3.0245551548
  O         0.8282582660        2.3495361490        2.7243847298
  C         3.3235501927        2.9306310483        2.7058069633
  F         4.6690889250        2.2243410442        2.6678731329
  F         3.1410026703        3.7918246110        3.9509142908
  F         2.9525498165        3.6933280300        1.4383011607
  H         1.9228875480       -0.9110485923        0.8830200119
  H         1.2502648291       -1.9415313450       -0.8442056359
  H         1.3133730695        0.0909591913       -0.8041574442
  H        -0.0280569832        2.2351446303       -0.7681332091
  H         1.4710512310        2.2516091533        0.2679978731
  H        -4.6772903722       -1.9720018316        4.0249490300
  H        -5.1554675266       -1.0539983346        2.2882083981
  H        -3.5710242212       -2.9957872497        2.2080768557
  H        -3.6754914373       -0.3772792198        5.6062365842
  H        -1.7979326231        0.6328139894        7.4654859392
  H        -0.6716375922        2.2417503827        6.3508467978
  H        -2.6935939641        2.3095641849        6.4488222167
  H        -2.9829351368       -0.3031220771       -1.8339462249
  H        -4.1241558661        1.2966415670       -2.0538828896
  H        -2.2288411710        1.3499142404       -3.2535258840
  H        -3.8792308444        3.5229098824       -0.7852362718
  H         1.4866144844       -1.2991838935        6.1946739048
  H         0.7180826962       -2.5135869258        4.6237649338
  H         2.6869312787       -1.9467075791        4.6641852843
  H         3.3959861332        0.6342891784        4.6581359767
      51
 i =        5, E =      -517.4472763088
  C         1.1451409120       -0.9668533843       -0.1151099009
  O        -0.3965745874       -0.9231044722        0.2319904845
 Dy        -0.7357056766        0.9195778284        1.8071047065
  O         0.4675218521        1.7833680963        0.1129779357
  O        -1.8609718354       -1.0049508360        2.4682427896
  C        -3.0115556294       -0.9266396294        3.2864644733
  C        -4.1820440116       -1.9598255371        2.7651340490
  C        -2.9661020096       -0.0885289439        4.6446297131
  C        -1.9636676443        1.0502906475        5.1209804415
  O        -1.3765254578        1.7800332282        3.9919290376
  C        -1.8062687013        1.4920521007        6.7471367620
  O        -2.4943518190        0.4783953725        0.3192554525
  C        -2.7092353752        1.4787429314       -0.6689757005
  C        -2.7948121322        0.9659807056       -2.3389902239
  C        -3.1551782491        2.8301459512       -0.0678398951
  C        -2.7597199308        3.6995497046        1.2516599922
  O        -1.4784825706        3.1976055055        1.7800516048
  C        -3.6091884014        5.0375824003        2.1112509688
  F        -5.0876132452        4.4624333488        1.7164043830
  F        -3.1931223424        6.3498163529        1.6391216274
  F        -3.1973491605        4.8296584919        3.5839465102
  O         0.5784196740       -0.6881212259        2.8256299776
  C         1.3655584563       -0.4758016032        3.9691250217
  C         1.5183801024       -1.6513458724        4.9931081393
  C         2.3855972228        0.6681439599        3.9504902695
  C         2.1185516202        1.8428138919        3.0435790087
  O         0.8491894572        2.3728616678        2.7108524612
  C         3.3240249307        2.9411899941        2.7214666705
  F         4.6936987850        2.2382802120        2.6538960604
  F         3.1821374006        3.8344738241        3.9781896643
  F         2.9531831914        3.6931914118        1.4167565434
  H         1.9360572822       -0.9172274324        0.9040949232
  H         1.2723045600       -1.9838489697       -0.8694404840
  H         1.3188406491        0.1008958220       -0.8228773250
  H        -0.0130448902        2.2697901529       -0.8068264460
  H         1.4940030113        2.2944162189        0.2536022133
  H        -4.6949301991       -2.0569109175        4.0083194574
  H        -5.1187769683       -1.1092721088        2.2498495261
  H        -3.6648694403       -3.2428506831        2.1824575920
  H        -3.6965556448       -0.3888196103        5.6314607234
  H        -1.8808171878        0.5851687930        7.6272201847
  H        -0.7153759326        2.2106852284        6.4077713759
  H        -2.7543731960        2.3567735616        6.5545228405
  H        -2.9550308157       -0.2970248510       -1.9016347768
  H        -4.0836893087        1.2890709786       -2.1488867832
  H        -2.1597725708        1.3717741410       -3.5035258840
  H        -3.8981522855        3.5410165913       -0.8014505428
  H         1.4896563311       -1.2890752173        6.2062907998
  H         0.7048521470       -2.5415607900        4.6339703955
  H         2.7126040951       -1.9840901806        4.6902318722
  H         3.4233648109        0.6334701281        4.6707871029
      51
 i =        6, E =      -517.0720647394
  C         1.1577080711       -0.9827298931       -0.1303530362
  O        -0.3970106887       -0.9435652699        0.2123083282
 Dy        -0.7321682238        0.9226588509        1.8095564370
  O         0.4767651481        1.7931738078        0.0968030645
  O        -1.8352116418       -1.0388752777        2.4380927293
  C        -2.9655053348       -0.9887407504        3.2882370290
  C        -4.1642248787       -1.9897554201        2.7721167053
  C        -2.9738406820       -0.1128981794        4.6463940247
  C        -2.0066935361        1.0632335321        5.2100766934
  O        -1.3756441113        1.7643896164        4.0690534347
  C        -1.8920613453        1.4725739432        6.8938663834
  O        -2.5175288049        0.4817726382        0.2563275202
  C        -2.7045902363        1.5050981518       -0.7109721432
  C        -2.7063845058        1.0123523837       -2.4648378800
  C        -3.1655988800        2.8492288781       -0.0744098148
  C        -2.7662048604        3.7678763107        1.2417772274
  O        -1.5020960510        3.2346424919        1.7860497949
  C        -3.6741004915        5.0793610028        2.1858828799
  F        -5.1468250290        4.5148165361        1.7231916764
  F        -3.1611735852        6.2544861665        1.6513983854
  F        -3.2153593823        4.9612825978        3.6306543610
  O         0.5837473833       -0.6862361672        2.8337052324
  C         1.3732903882       -0.4793743870        3.9683704114
  C         1.5231489914       -1.6588410508        4.9868372142
  C         2.3914155337        0.6672609138        3.9515726531
  C         2.1151630318        1.8472000313        3.0545652427
  O         0.8583167437        2.3782842781        2.6962425787
  C         3.3245211385        2.9472571520        2.7361484404
  F         4.7101708106        2.2530543154        2.6437843490
  F         3.2118006009        3.8632029930        3.9965197609
  F         2.9550428062        3.6876483040        1.4060119430
  H         1.9391830185       -0.9242940115        0.9130870389
  H         1.2902784886       -2.0119546333       -0.8832319533
  H         1.3231539878        0.1048874221       -0.8341493108
  H        -0.0013125755        2.2901338972       -0.8329738283
  H         1.5080531322        2.3222037605        0.2435057885
  H        -4.7067128133       -2.1394688596        3.9966337034
  H        -5.0939643523       -1.1620566189        2.2048447562
  H        -3.6595826836       -3.2296309063        2.1406761832
  H        -3.7113545471       -0.3986079711        5.6450138377
  H        -1.9494640178        0.5533308273        7.7676526450
  H        -0.7624072019        2.1743607703        6.4710584777
  H        -2.8105790297        2.3845553752        6.6607274970
  H        -2.9181208318       -0.2701655656       -1.9706501263
  H        -4.0391802505        1.2859373702       -2.2371709449
  H        -2.1105387844        1.3571850922       -3.7535258840
  H        -3.9149388201        3.5596318755       -0.8197725461
  H         1.4909091879       -1.2836763199        6.2093009634
  H         0.6990111443       -2.5578847736        4.6441771051
  H         2.7291364739       -2.0133923358        4.7112294962
  H         3.4381578378        0.6336743434        4.6759403704
      51
 i =        7, E =      -517.6664848950
  C         1.1601574508       -0.9922510613       -0.1509436511
  O        -0.3842161457       -0.9516995736        0.2157150219
 Dy        -0.7539171783        0.9209242331        1.8189137748
  O         0.4760686682        1.8381733569        0.0969713121
  O        -1.7759885999       -1.0670238836        2.3953065918
  C        -2.9044175648       -1.0725000557        3.2679379461
  C        -4.1319036633       -2.0214577150        2.7799806132
  C        -2.9997311760       -0.1735868492        4.6407890587
  C        -2.0269730413        1.0003683264        5.2252728481
  O        -1.3828830063        1.7469680902        4.1396543695
  C        -1.8548764104        1.5221031959        6.8507831761
  O        -2.4992020907        0.4888079216        0.2071663423
  C        -2.6438957312        1.5653621731       -0.7150187875
  C        -2.7175412432        1.0145584741       -2.4256047357
  C        -3.1735508733        2.9007877817       -0.0745080080
  C        -2.7849367383        3.8552287144        1.2533454290
  O        -1.5315101083        3.2523840858        1.7826776437
  C        -3.7912209048        5.1022493149        2.3339896183
  F        -5.2301001583        4.6151162429        1.7483587805
  F        -3.1025708987        6.0044861665        1.7086206198
  F        -3.2380573968        5.1799748382        3.6966212572
  O         0.5748092825       -0.6507966555        2.8319251368
  C         1.3769534486       -0.4880560590        3.9717911255
  C         1.5360155088       -1.6664674125        4.9795717956
  C         2.3916440074        0.6682872145        3.9491739772
  C         2.1155244596        1.8558471443        3.0539664300
  O         0.8473022795        2.3438499168        2.6679836797
  C         3.3234844576        2.9466494666        2.7617970408
  F         4.7175213200        2.2790011982        2.6344515141
  F         3.2365925426        3.8982900339        3.9960586502
  F         2.9595700011        3.6643443678        1.4149806855
  H         1.9204763869       -0.9378171362        0.9026342349
  H         1.3092410875       -2.0276307231       -0.8800556036
  H         1.3268424275        0.1004771729       -0.8359967937
  H         0.0127957639        2.2927098938       -0.8460748615
  H         1.5087922665        2.3358713077        0.2358144119
  H        -4.6992918944       -2.2650387204        3.9537921670
  H        -5.0367699495       -1.2663093055        2.1354463932
  H        -3.6276857287       -3.1029225665        2.0326107846
  H        -3.7300464495       -0.4142832268        5.6533248007
  H        -2.0279916650        0.6489217517        7.7893689715
  H        -0.7375953514        2.1804223263        6.5797697696
  H        -2.8045335331        2.3453144794        6.8025587602
  H        -2.8469451211       -0.2680002926       -2.0781238576
  H        -4.0200567900        1.3054183966       -2.3739166582
  H        -2.2662490843        1.2641122971       -3.8006387641
  H        -3.9259305993        3.5783015802       -0.8398447560
  H         1.4890376364       -1.2857774615        6.1945304702
  H         0.7054090797       -2.5585565834        4.6618242661
  H         2.7357561752       -2.0438675908        4.7355848394
  H         3.4337948055        0.6368015725        4.6681156781
      51
 i =        8, E =      -517.8902426298
  C         1.1607012934       -0.9988555139       -0.1636157333
  O        -0.3764821733       -0.9527235729        0.2224541357
 Dy        -0.7706784146        0.9246518849        1.8118948509
  O         0.4762586324        1.8684904362        0.0953631270
  O        -1.7455609576       -1.0801353547        2.3705777014
  C        -2.8729931675       -1.1369469566        3.2574794312
  C        -4.1149175825       -2.0610834534        2.7825341011
  C        -3.0074229540       -0.2142492834        4.6402817031
  C        -2.0525309692        0.9862123746        5.2904339944
  O        -1.3931748884        1.7128100926        4.1940768693
  C        -1.7489673569        1.5957698836        6.8740301552
  O        -2.4778689801        0.5005557038        0.1856815770
  C        -2.6146328479        1.5983496388       -0.7254661974
  C        -2.7352350823        1.0246709700       -2.4110794522
  C        -3.1733121788        2.9439231704       -0.0853895370
  C        -2.8016238717        3.8366737542        1.2713450378
  O        -1.5511090828        3.2813697846        1.7768086842
  C        -3.8109402993        5.1313536016        2.3089644919
  F        -5.2424787244        4.7127154669        1.7942926995
  F        -3.1081314109        6.0107429665        1.7625173045
  F        -3.3197852232        5.3443480890        3.6569986932
  O         0.5618310459       -0.6248041620        2.8290174378
  C         1.3892027829       -0.5034915911        3.9702881282
  C         1.5455016754       -1.6754672612        4.9819197071
  C         2.3922070216        0.6707946797        3.9499452810
  C         2.1175641326        1.8710087130        3.0622646015
  O         0.8358926924        2.3165929408        2.6492601017
  C         3.3296928735        2.9507076973        2.7714358147
  F         4.7251186691        2.2880867520        2.6283452966
  F         3.2589836251        3.9167379799        3.9953556490
  F         2.9576733227        3.6570190919        1.4174454315
  H         1.9108758906       -0.9496756216        0.8938097979
  H         1.3243432373       -2.0376278950       -0.8790374135
  H         1.3308017745        0.0954175434       -0.8389121966
  H         0.0223497757        2.2926209616       -0.8574018128
  H         1.5103319365        2.3456267084        0.2310130933
  H        -4.6824705979       -2.3718422937        3.9255732174
  H        -5.0000438603       -1.3420531274        2.0848486934
  H        -3.5915252419       -3.1576451354        2.1420701294
  H        -3.7427333788       -0.4277546345        5.6554416580
  H        -2.0899017229        0.7103542895        7.8125354946
  H        -0.6578989401        2.2278259218        6.6748831941
  H        -2.7929806258        2.2618762003        6.9102378027
  H        -2.7739976248       -0.2593113324       -2.1710964648
  H        -4.0115738272        1.3324369152       -2.4781605426
  H        -2.5162490843        1.1410055789       -3.9604410284
  H        -3.9396353361        3.5957480950       -0.8589913863
  H         1.4870822310       -1.2870218083        6.1903962544
  H         0.7088735529       -2.5595896304        4.6724675836
  H         2.7407149457       -2.0634166569        4.7500048529
  H         3.4332758877        0.6386406146        4.6630335914
      51
 i =        9, E =      -518.2575555435
  C         1.1622019282       -1.0063292891       -0.1734293018
  O        -0.3696660061       -0.9507218806        0.2300240335
 Dy        -0.7878533317        0.9249663606        1.8010487340
  O         0.4757780790        1.8933833838        0.0939433609
  O        -1.7289963647       -1.0993920241        2.3593710521
  C        -2.8536589163       -1.2103433974        3.2597797142
  C        -4.0952071425       -2.1261215465        2.8182313878
  C        -3.0211761525       -0.2664261448        4.6482650051
  C        -2.0592008183        0.9189012820        5.3032361916
  O        -1.4025138260        1.6804820019        4.2437313903
  C        -1.7398884342        1.5792739130        6.8295763406
  O        -2.4503863085        0.5231511519        0.1515911734
  C        -2.6049691552        1.6276155394       -0.7569846508
  C        -2.7157608991        1.0380365477       -2.4458227067
  C        -3.1708249048        2.9871592038       -0.1120831387
  C        -2.8160910533        3.7618850979        1.2834179745
  O        -1.5670405453        3.3185330794        1.7803148038
  C        -3.8096762280        5.1363476730        2.2269446695
  F        -5.2403046925        4.8287280394        1.8495297012
  F        -3.1209298717        6.0908210766        1.8025322996
  F        -3.4939617485        5.5943480890        3.5800887738
  O         0.5500273019       -0.5985683382        2.8266404307
  C         1.4078797504       -0.5189727402        3.9655881076
  C         1.5536582431       -1.6851232040        4.9875738248
  C         2.3957016521        0.6739574917        3.9538731188
  C         2.1187472792        1.8863847716        3.0769992582
  O         0.8279901692        2.2963050491        2.6317336285
  C         3.3374010448        2.9566488464        2.7714645757
  F         4.7338906574        2.2939193747        2.6228985446
  F         3.2769940936        3.9258084279        3.9939843099
  F         2.9517156676        3.6608396138        1.4158253741
  H         1.9066950297       -0.9637663365        0.8856944649
  H         1.3403268440       -2.0472041635       -0.8815027128
  H         1.3356330386        0.0882943942       -0.8445192573
  H         0.0335729477        2.2946974597       -0.8706629930
  H         1.5117874815        2.3591983695        0.2266452066
  H        -4.6467089780       -2.5245212306        3.9215919160
  H        -4.9460445422       -1.4344073823        2.0455153237
  H        -3.5188838197       -3.2078094628        2.2948129810
  H        -3.7663139227       -0.4515312715        5.6633689069
  H        -2.2427921141        0.7873430605        7.8781014473
  H        -0.6655039564        2.2094406391        6.7599883467
  H        -2.8143511936        2.1639010070        6.9972716264
  H        -2.6722110540       -0.2498162491       -2.3003771648
  H        -3.9802718016        1.3522143848       -2.5833565499
  H        -2.5363008361        1.2334709267       -3.9397455957