srun: Job 11367739 step creation temporarily disabled, retrying (Requested nodes are busy)
srun: Step created for job 11367739
 DBCSR| Multiplication driver                                               XSMM
 DBCSR| Multrec recursion limit                                              512
 DBCSR| Multiplication stack size                                           1000
 DBCSR| Maximum elements for images                                    UNLIMITED
 DBCSR| Multiplicative factor virtual images                                   1
 DBCSR| Randmat seed                                                    12341313
 DBCSR| Multiplication size stacks                                             3
 DBCSR| Number of 3D layers                                               SINGLE
 DBCSR| Use MPI memory allocation                                              T
 DBCSR| Use RMA algorithm                                                      F
 DBCSR| Use Communication thread                                               T
 DBCSR| Communication thread load                                             87


  **** **** ******  **  PROGRAM STARTED AT               2023-03-24 21:07:05.304
 ***** ** ***  *** **   PROGRAM STARTED ON        node131.pri.kelvin2.alces.netw
 **    ****   ******    PROGRAM STARTED BY                              40265864
 ***** **    ** ** **   PROGRAM PROCESS ID                                125523
  **** **  *******  **  PROGRAM STARTED IN /mnt/scratch2/users/40265864/MSc_ML_M
                                           M/ln_replacements/xyz/Dy_L18_L20_L20_
                                           MeO_O/geometry_optimisation/run-6

 CP2K| version string:                                          CP2K version 4.1
 CP2K| source code revision number:                                    svn:17462
 CP2K| cp2kflags: libint fftw3 libxc parallel mpi3 scalapack libxsmm libderiv_ma
 CP2K|            x_am1=5 libint_max_am=6
 CP2K| is freely available from                            https://www.cp2k.org/
 CP2K| Program compiled at                          Mon 24 Oct 18:14:20 BST 2022
 CP2K| Program compiled on                      login1.pri.kelvin2.alces.network
 CP2K| Program compiled for                                                local
 CP2K| Data directory path                      /users/40265864/source/cp2k/data
 CP2K| Input file name                                         geo-opt-relax.inp

 GLOBAL| Force Environment number                                              1
 GLOBAL| Basis set file name                                 ../BASIS_MOLOPT_UCL
 GLOBAL| Potential file name                                        ../POTENTIAL
 GLOBAL| MM Potential file name                                     MM_POTENTIAL
 GLOBAL| Coordinate file name                     ../../Dy_L18_L20_L20_MeO_O.xyz
 GLOBAL| Method name                                                        CP2K
 GLOBAL| Project name                                              molecule_name
 GLOBAL| Preferred FFT library                                             FFTW3
 GLOBAL| Preferred diagonalization lib.                                       SL
 GLOBAL| Run type                                                        GEO_OPT
 GLOBAL| All-to-all communication in single precision                          F
 GLOBAL| FFTs using library dependent lengths                                  F
 GLOBAL| Global print level                                                  LOW
 GLOBAL| Total number of message passing processes                           121
 GLOBAL| Number of threads for this process                                    1
 GLOBAL| This output is from process                                           0
 GLOBAL| CPU model name :  AMD EPYC 7702 64-Core Processor

 MEMORY| system memory details [Kb]
 MEMORY|                        rank 0           min           max       average
 MEMORY| MemTotal            792056776     792056776     792056776     792056776
 MEMORY| MemFree             675733972     675733972     675734476     675733980
 MEMORY| Buffers                270960        270960        270960        270960
 MEMORY| Cached               92116156      92116156      92116156      92116156
 MEMORY| Slab                  9282396       9282396       9282396       9282396
 MEMORY| SReclaimable          1209976       1209976       1209976       1209976
 MEMORY| MemLikelyFree       769331064     769331064     769331568     769331072


 GENERATE|  Preliminary Number of Bonds generated:                             0
 GENERATE|  Achieved consistency in connectivity generation.

 *******************************************************************************
 *******************************************************************************
 **                                                                           **
 **     #####                         ##              ##                      **
 **    ##   ##            ##          ##              ##                      **
 **   ##     ##                       ##            ######                    **
 **   ##     ##  ##   ##  ##   #####  ##  ##   ####   ##    #####    #####    **
 **   ##     ##  ##   ##  ##  ##      ## ##   ##      ##   ##   ##  ##   ##   **
 **   ##  ## ##  ##   ##  ##  ##      ####     ###    ##   ######   ######    **
 **    ##  ###   ##   ##  ##  ##      ## ##      ##   ##   ##       ##        **
 **     #######   #####   ##   #####  ##  ##  ####    ##    #####   ##        **
 **           ##                                                    ##        **
 **                                                                           **
 **                                                ... make the atoms dance   **
 **                                                                           **
 **            Copyright (C) by CP2K developers group (2000 - 2016)           **
 **                                                                           **
 *******************************************************************************


 SCF PARAMETERS         Density guess:                                   RESTART
                        --------------------------------------------------------
                        max_scf:                                              50
                        max_scf_history:                                       0
                        max_diis:                                              4
                        --------------------------------------------------------
                        eps_scf:                                        5.00E-05
                        eps_scf_history:                                0.00E+00
                        eps_diis:                                       1.00E-01
                        eps_eigval:                                     1.00E-05
                        --------------------------------------------------------
                        level_shift [a.u.]:                                 0.00
                        --------------------------------------------------------
                        Outer loop SCF in use 
                        No variables optimised in outer loop
                        eps_scf                                         5.00E-05
                        max_scf                                               20
                        No outer loop optimization
                        step_size                                       5.00E-01

 *******************************************************************************
 ***                     STARTING GEOMETRY OPTIMIZATION                      ***
 ***                                   BFGS                                  ***
 *******************************************************************************

 Spin 1

 Number of electrons:                                                         98
 Number of occupied orbitals:                                                 98
 Number of molecular orbitals:                                                98

 Spin 2

 Number of electrons:                                                         93
 Number of occupied orbitals:                                                 93
 Number of molecular orbitals:                                                93

 Number of orbital functions:                                                157
 Number of independent orbital functions:                                    157

 Extrapolation method: initial_guess

 *** WARNING in qs_initial_guess.F:262 :: User requested to restart the    ***
 *** wavefunction from the file named: molecule_name-RESTART.wfn. This     ***
 *** file does not exist. Please check the existence of the file or change ***
 *** properly the value of the keyword WFN_RESTART_FILE_NAME. Calculation  ***
 *** continues using ATOMIC GUESS.                                         ***



 SCF WAVEFUNCTION OPTIMIZATION

  ----------------------------------- OT ---------------------------------------
  Minimizer      : DIIS                : direct inversion
                                         in the iterative subspace
                                         using   7 DIIS vectors
                                         safer DIIS on
  Preconditioner : FULL_KINETIC        : inversion of T + eS
  Precond_solver : DEFAULT
  stepsize       :    0.15000000                  energy_gap     :    0.20000000
  eps_taylor     :   0.10000E-15                  max_taylor     :             4
  ----------------------------------- OT ---------------------------------------

  Step     Update method      Time    Convergence         Total energy    Change
  ------------------------------------------------------------------------------
     1 OT DIIS     0.15E+00    0.3     0.02590664      -500.4828172751 -5.00E+02
     2 OT DIIS     0.15E+00    0.5     0.02204397      -503.2760576344 -2.79E+00
     3 OT DIIS     0.15E+00    0.3     0.01320162      -507.9663269325 -4.69E+00
     4 OT DIIS     0.15E+00    0.3     0.01219606      -508.1246189418 -1.58E-01
     5 OT DIIS     0.15E+00    0.3     0.00760514      -511.3092560217 -3.18E+00
     6 OT DIIS     0.15E+00    0.3     0.00688968      -511.5980848691 -2.89E-01
     7 OT DIIS     0.15E+00    0.3     0.00525950      -512.8926591969 -1.29E+00
     8 OT DIIS     0.15E+00    0.3     0.00589630      -513.0074084439 -1.15E-01
     9 OT DIIS     0.15E+00    0.3     0.00560090      -513.2938083459 -2.86E-01
    10 OT DIIS     0.15E+00    0.3     0.00341531      -513.8078235675 -5.14E-01
    11 OT DIIS     0.15E+00    0.3     0.00260813      -514.0348898087 -2.27E-01
    12 OT DIIS     0.15E+00    0.3     0.00239512      -514.0965873441 -6.17E-02
    13 OT DIIS     0.15E+00    0.3     0.00194220      -514.3150649156 -2.18E-01
    14 OT DIIS     0.15E+00    6.9     0.00191403      -514.3950220062 -8.00E-02
    15 OT DIIS     0.15E+00    6.0     0.00156092      -514.5574976094 -1.62E-01
    16 OT DIIS     0.15E+00    0.3     0.00146812      -514.6213631799 -6.39E-02
    17 OT DIIS     0.15E+00    0.3     0.00140790      -514.6566438375 -3.53E-02
    18 OT DIIS     0.15E+00    0.3     0.00130493      -514.7308133408 -7.42E-02
    19 OT DIIS     0.15E+00    0.3     0.00116728      -514.8096378134 -7.88E-02
    20 OT DIIS     0.15E+00    0.3     0.00111492      -514.8423213387 -3.27E-02
    21 OT DIIS     0.15E+00    0.3     0.00105660      -514.8865968818 -4.43E-02
    22 OT SD       0.15E+00    0.3     0.00101748      -514.9299869245 -4.34E-02
    23 OT DIIS     0.15E+00    0.3     0.00100856      -514.9346217751 -4.63E-03
    24 OT DIIS     0.15E+00    0.3     0.00100781      -514.9746429471 -4.00E-02
    25 OT DIIS     0.15E+00    0.3     0.00092479      -515.0147644695 -4.01E-02
    26 OT SD       0.15E+00    0.3     0.00098951      -515.0200189064 -5.25E-03
    27 OT DIIS     0.15E+00    0.3     0.00097493      -515.0243881768 -4.37E-03
    28 OT DIIS     0.15E+00    0.3     0.00088269      -515.0753858133 -5.10E-02
    29 OT DIIS     0.15E+00    0.3     0.00087593      -515.0838404687 -8.45E-03
    30 OT DIIS     0.15E+00    0.3     0.00083699      -515.1219079793 -3.81E-02
    31 OT DIIS     0.15E+00    0.3     0.00076974      -515.1765815971 -5.47E-02
    32 OT DIIS     0.15E+00    0.3     0.00075710      -515.1885269515 -1.19E-02
    33 OT DIIS     0.15E+00    0.3     0.00074525      -515.2019296816 -1.34E-02
    34 OT DIIS     0.15E+00    0.3     0.00073241      -515.2096632601 -7.73E-03
    35 OT DIIS     0.15E+00    0.3     0.00070185      -515.2440088837 -3.43E-02
    36 OT DIIS     0.15E+00    0.3     0.00066540      -515.2532523046 -9.24E-03
    37 OT DIIS     0.15E+00    0.3     0.00058866      -515.2983352742 -4.51E-02
    38 OT DIIS     0.15E+00    0.3     0.00056973      -515.3074597729 -9.12E-03
    39 OT DIIS     0.15E+00    0.3     0.00049774      -515.3403206080 -3.29E-02
    40 OT SD       0.15E+00    0.3     0.00050138      -515.3412548678 -9.34E-04
    41 OT DIIS     0.15E+00    0.3     0.00049243      -515.3423748133 -1.12E-03
    42 OT SD       0.15E+00    0.3     0.00040061      -515.3765914813 -3.42E-02
    43 OT DIIS     0.15E+00    0.3     0.00039318      -515.3773062082 -7.15E-04
    44 OT DIIS     0.15E+00    0.3     0.00033872      -515.3917292270 -1.44E-02
    45 OT SD       0.15E+00    0.3     0.00033274      -515.3946980018 -2.97E-03
    46 OT DIIS     0.15E+00    0.3     0.00032657      -515.3951910785 -4.93E-04
    47 OT SD       0.15E+00    0.3     0.00029004      -515.4058659916 -1.07E-02
    48 OT DIIS     0.15E+00    0.3     0.00028569      -515.4062413910 -3.75E-04
    49 OT DIIS     0.15E+00    0.3     0.00025126      -515.4164545100 -1.02E-02
    50 OT DIIS     0.15E+00    0.3     0.00024880      -515.4167556271 -3.01E-04

  Leaving inner SCF loop after reaching    50 steps.


  Electronic density on regular grids:       -190.9999999667        0.0000000333
  Core density on regular grids:              193.9999999907       -0.0000000093
  Total charge density on r-space grids:        3.0000000240
  Total charge density g-space grids:           3.0000000240

  Overlap energy of the core charge distribution:               0.00000576685054
  Self energy of the core charge distribution:              -1180.77596130715415
  Core Hamiltonian energy:                                    339.41117199213215
  Hartree energy:                                             427.49044303551420
  Exchange-correlation energy:                               -101.54241511444347

  Total energy:                                              -515.41675562710066

  outer SCF iter =    1 RMS gradient =   0.25E-03 energy =       -515.4167556271

  ----------------------------------- OT ---------------------------------------
  Minimizer      : DIIS                : direct inversion
                                         in the iterative subspace
                                         using   7 DIIS vectors
                                         safer DIIS on
  Preconditioner : FULL_KINETIC        : inversion of T + eS
  Precond_solver : DEFAULT
  stepsize       :    0.15000000                  energy_gap     :    0.20000000
  eps_taylor     :   0.10000E-15                  max_taylor     :             4
  ----------------------------------- OT ---------------------------------------

  Step     Update method      Time    Convergence         Total energy    Change
  ------------------------------------------------------------------------------
     1 OT DIIS     0.15E+00    0.7     0.00035954      -515.4214216730 -4.67E-03
     2 OT DIIS     0.15E+00    0.3     0.00034988      -515.4219950420 -5.73E-04
     3 OT DIIS     0.15E+00    0.6     0.00029283      -515.4271981828 -5.20E-03
     4 OT DIIS     0.15E+00    0.9     0.00026887      -515.4311183294 -3.92E-03
     5 OT DIIS     0.15E+00    0.3     0.00025250      -515.4344024658 -3.28E-03
     6 OT DIIS     0.15E+00    0.7     0.00024319      -515.4373284570 -2.93E-03
     7 OT DIIS     0.15E+00    0.9     0.00022758      -515.4426843055 -5.36E-03
     8 OT DIIS     0.15E+00    0.3     0.00021453      -515.4476490840 -4.96E-03
     9 OT DIIS     0.15E+00    0.3     0.00020749      -515.4500652298 -2.42E-03
    10 OT DIIS     0.15E+00    0.3     0.00019683      -515.4552152185 -5.15E-03
    11 OT DIIS     0.15E+00    0.3     0.00018949      -515.4579750688 -2.76E-03
    12 OT DIIS     0.15E+00    0.3     0.00018684      -515.4597341023 -1.76E-03
    13 OT DIIS     0.15E+00    0.3     0.00018082      -515.4631373174 -3.40E-03
    14 OT DIIS     0.15E+00    0.3     0.00017877      -515.4643079275 -1.17E-03
    15 OT DIIS     0.15E+00    0.3     0.00017053      -515.4691770803 -4.87E-03
    16 OT DIIS     0.15E+00    0.3     0.00016803      -515.4708036437 -1.63E-03
    17 OT DIIS     0.15E+00    0.3     0.00016484      -515.4729828873 -2.18E-03
    18 OT DIIS     0.15E+00    0.3     0.00016341      -515.4741372128 -1.15E-03
    19 OT DIIS     0.15E+00    0.3     0.00015930      -515.4760831093 -1.95E-03
    20 OT DIIS     0.15E+00    0.3     0.00015659      -515.4781026317 -2.02E-03
    21 OT DIIS     0.15E+00    0.3     0.00015492      -515.4794014539 -1.30E-03
    22 OT DIIS     0.15E+00    0.3     0.00015408      -515.4797993428 -3.98E-04
    23 OT DIIS     0.15E+00    0.3     0.00014369      -515.4859114695 -6.11E-03
    24 OT DIIS     0.15E+00    0.3     0.00014244      -515.4868219908 -9.11E-04
    25 OT DIIS     0.15E+00    0.3     0.00014032      -515.4878197283 -9.98E-04
    26 OT SD       0.15E+00    0.3     0.00012988      -515.4928382758 -5.02E-03
    27 OT DIIS     0.15E+00    0.3     0.00012854      -515.4929137207 -7.54E-05
    28 OT DIIS     0.15E+00    0.3     0.00012396      -515.4950528800 -2.14E-03
    29 OT DIIS     0.15E+00    0.3     0.00011877      -515.4964858853 -1.43E-03
    30 OT DIIS     0.15E+00    0.3     0.00012389      -515.4968634394 -3.78E-04
    31 OT SD       0.15E+00    0.3     0.00011624      -515.4982274510 -1.36E-03
    32 OT DIIS     0.15E+00    0.3     0.00011464      -515.4982877630 -6.03E-05
    33 OT DIIS     0.15E+00    0.3     0.00010683      -515.5008480117 -2.56E-03
    34 OT DIIS     0.15E+00    0.3     0.00010792      -515.5011723493 -3.24E-04
    35 OT DIIS     0.15E+00    0.3     0.00010133      -515.5025707057 -1.40E-03
    36 OT DIIS     0.15E+00    0.3     0.00009814      -515.5032341926 -6.63E-04
    37 OT DIIS     0.15E+00    0.3     0.00009521      -515.5036719362 -4.38E-04
    38 OT DIIS     0.15E+00    0.3     0.00009306      -515.5041021978 -4.30E-04
    39 OT DIIS     0.15E+00    0.3     0.00008625      -515.5058351570 -1.73E-03
    40 OT DIIS     0.15E+00    0.3     0.00008549      -515.5060057778 -1.71E-04
    41 OT DIIS     0.15E+00    0.3     0.00008431      -515.5062897719 -2.84E-04
    42 OT SD       0.15E+00    0.3     0.00008148      -515.5073276329 -1.04E-03
    43 OT DIIS     0.15E+00    0.3     0.00008095      -515.5073573873 -2.98E-05
    44 OT DIIS     0.15E+00    0.3     0.00007881      -515.5080754157 -7.18E-04
    45 OT DIIS     0.15E+00    0.3     0.00007835      -515.5083008718 -2.25E-04
    46 OT DIIS     0.15E+00    0.3     0.00007776      -515.5085417405 -2.41E-04
    47 OT DIIS     0.15E+00    0.3     0.00007731      -515.5087396761 -1.98E-04
    48 OT DIIS     0.15E+00    0.3     0.00007705      -515.5088848956 -1.45E-04
    49 OT DIIS     0.15E+00    0.3     0.00007614      -515.5095286043 -6.44E-04
    50 OT DIIS     0.15E+00    0.3     0.00007598      -515.5096373886 -1.09E-04

  Leaving inner SCF loop after reaching    50 steps.


  Electronic density on regular grids:       -190.9999999667        0.0000000333
  Core density on regular grids:              193.9999999907       -0.0000000093
  Total charge density on r-space grids:        3.0000000240
  Total charge density g-space grids:           3.0000000240

  Overlap energy of the core charge distribution:               0.00000576685054
  Self energy of the core charge distribution:              -1180.77596130715415
  Core Hamiltonian energy:                                    339.65737283910914
  Hartree energy:                                             427.28083330085985
  Exchange-correlation energy:                               -101.67188798826666

  Total energy:                                              -515.50963738860128

  outer SCF iter =    2 RMS gradient =   0.76E-04 energy =       -515.5096373886

  ----------------------------------- OT ---------------------------------------
  Minimizer      : DIIS                : direct inversion
                                         in the iterative subspace
                                         using   7 DIIS vectors
                                         safer DIIS on
  Preconditioner : FULL_KINETIC        : inversion of T + eS
  Precond_solver : DEFAULT
  stepsize       :    0.15000000                  energy_gap     :    0.20000000
  eps_taylor     :   0.10000E-15                  max_taylor     :             4
  ----------------------------------- OT ---------------------------------------

  Step     Update method      Time    Convergence         Total energy    Change
  ------------------------------------------------------------------------------
     1 OT DIIS     0.15E+00    0.6     0.00008526      -515.5098838651 -2.46E-04
     2 OT DIIS     0.15E+00    0.3     0.00008507      -515.5099165266 -3.27E-05
     3 OT DIIS     0.15E+00    0.3     0.00008355      -515.5103458330 -4.29E-04
     4 OT DIIS     0.15E+00    0.3     0.00008239      -515.5109397207 -5.94E-04
     5 OT DIIS     0.15E+00    0.3     0.00008137      -515.5115813233 -6.42E-04
     6 OT DIIS     0.15E+00    0.3     0.00008037      -515.5123361611 -7.55E-04
     7 OT DIIS     0.15E+00    0.3     0.00007985      -515.5129033506 -5.67E-04
     8 OT SD       0.15E+00    0.3     0.00007861      -515.5141367597 -1.23E-03
     9 OT DIIS     0.15E+00    0.3     0.00007848      -515.5141645298 -2.78E-05
    10 OT DIIS     0.15E+00    0.3     0.00007746      -515.5151924748 -1.03E-03
    11 OT SD       0.15E+00    0.3     0.00007669      -515.5164193627 -1.23E-03
    12 OT DIIS     0.15E+00    0.3     0.00007646      -515.5164457722 -2.64E-05
    13 OT SD       0.15E+00    3.5     0.00007621      -515.5169095546 -4.64E-04
    14 OT DIIS     0.15E+00    0.3     0.00007605      -515.5169356477 -2.61E-05
    15 OT DIIS     0.15E+00    0.3     0.00007363      -515.5184716332 -1.54E-03
    16 OT DIIS     0.15E+00    0.3     0.00007186      -515.5196618276 -1.19E-03
    17 OT DIIS     0.15E+00    0.3     0.00007063      -515.5203725879 -7.11E-04
    18 OT DIIS     0.15E+00    0.3     0.00006604      -515.5224669091 -2.09E-03
    19 OT DIIS     0.15E+00    0.3     0.00006445      -515.5231879550 -7.21E-04
    20 OT DIIS     0.15E+00    0.3     0.00006322      -515.5236820535 -4.94E-04
    21 OT DIIS     0.15E+00    0.3     0.00006243      -515.5239901731 -3.08E-04
    22 OT DIIS     0.15E+00    0.3     0.00005939      -515.5247787022 -7.89E-04
    23 OT DIIS     0.15E+00    0.3     0.00005964      -515.5248155638 -3.69E-05
    24 OT DIIS     0.15E+00    0.3     0.00005797      -515.5252439248 -4.28E-04
    25 OT DIIS     0.15E+00    0.3     0.00005596      -515.5256421861 -3.98E-04
    26 OT DIIS     0.15E+00    0.3     0.00005522      -515.5258521454 -2.10E-04
    27 OT DIIS     0.15E+00    0.3     0.00005320      -515.5266135163 -7.61E-04
    28 OT DIIS     0.15E+00    0.3     0.00005264      -515.5268417635 -2.28E-04
    29 OT DIIS     0.15E+00    0.3     0.00005194      -515.5271393642 -2.98E-04
    30 OT DIIS     0.15E+00    0.3     0.00005139      -515.5273639209 -2.25E-04
    31 OT DIIS     0.15E+00    0.3     0.00005003      -515.5279510759 -5.87E-04
    32 OT DIIS     0.15E+00    0.3     0.00004964      -515.5280088634 -5.78E-05

  *** SCF run converged in    32 steps ***


  Electronic density on regular grids:       -190.9999999667        0.0000000333
  Core density on regular grids:              193.9999999907       -0.0000000093
  Total charge density on r-space grids:        3.0000000240
  Total charge density g-space grids:           3.0000000240

  Overlap energy of the core charge distribution:               0.00000576685054
  Self energy of the core charge distribution:              -1180.77596130715415
  Core Hamiltonian energy:                                    339.83071808302662
  Hartree energy:                                             427.14653099757538
  Exchange-correlation energy:                               -101.72930240374302

  Total energy:                                              -515.52800886344471

  outer SCF iter =    3 RMS gradient =   0.50E-04 energy =       -515.5280088634
  outer SCF loop converged in   3 iterations or  132 steps


  Integrated absolute spin density  :                              10.1143997470
  Ideal and single determinant S**2 :                    8.750000      10.893770

 ENERGY| Total FORCE_EVAL ( QS ) energy (a.u.):             -515.528275930830546


 --------  Informations at step =     0 ------------
  Optimization Method        =                 BFGS
  Total Energy               =      -515.5282759308
  Used time                  =               58.271
 ---------------------------------------------------

 --------------------------
 OPTIMIZATION STEP:      1
 --------------------------

  Step is scaled; Scaling factor =  0.89420

 Spin 1

 Number of electrons:                                                         98
 Number of occupied orbitals:                                                 98
 Number of molecular orbitals:                                                98

 Spin 2

 Number of electrons:                                                         93
 Number of occupied orbitals:                                                 93
 Number of molecular orbitals:                                                93

 Number of orbital functions:                                                157
 Number of independent orbital functions:                                    157

 Extrapolation method: ASPC


 SCF WAVEFUNCTION OPTIMIZATION

  ----------------------------------- OT ---------------------------------------
  Minimizer      : DIIS                : direct inversion
                                         in the iterative subspace
                                         using   7 DIIS vectors
                                         safer DIIS on
  Preconditioner : FULL_KINETIC        : inversion of T + eS
  Precond_solver : DEFAULT
  stepsize       :    0.15000000                  energy_gap     :    0.20000000
  eps_taylor     :   0.10000E-15                  max_taylor     :             4
  ----------------------------------- OT ---------------------------------------

  Step     Update method      Time    Convergence         Total energy    Change
  ------------------------------------------------------------------------------
     1 OT DIIS     0.15E+00    0.2     0.00272888      -515.8329743762 -5.16E+02
     2 OT DIIS     0.15E+00    0.3     0.00243992      -515.8646430366 -3.17E-02
     3 OT DIIS     0.15E+00    0.3     0.00144564      -515.9804268838 -1.16E-01
     4 OT DIIS     0.15E+00    0.3     0.00070046      -516.0538504720 -7.34E-02
     5 OT DIIS     0.15E+00    0.3     0.00060200      -516.0599634967 -6.11E-03
     6 OT DIIS     0.15E+00    0.3     0.00032046      -516.0732190851 -1.33E-02
     7 OT DIIS     0.15E+00    0.3     0.00023107      -516.0760816612 -2.86E-03
     8 OT DIIS     0.15E+00    0.3     0.00019457      -516.0776146381 -1.53E-03
     9 OT DIIS     0.15E+00    0.3     0.00015533      -516.0785877615 -9.73E-04
    10 OT DIIS     0.15E+00    0.3     0.00012991      -516.0795238969 -9.36E-04
    11 OT DIIS     0.15E+00    0.3     0.00012376      -516.0797682413 -2.44E-04
    12 OT DIIS     0.15E+00    0.3     0.00010215      -516.0807058846 -9.38E-04
    13 OT DIIS     0.15E+00    0.3     0.00009626      -516.0810037932 -2.98E-04
    14 OT DIIS     0.15E+00    0.3     0.00008674      -516.0815153615 -5.12E-04
    15 OT DIIS     0.15E+00    0.3     0.00008338      -516.0817213227 -2.06E-04
    16 OT DIIS     0.15E+00    0.3     0.00007385      -516.0822478059 -5.26E-04
    17 OT DIIS     0.15E+00    0.3     0.00007216      -516.0823509732 -1.03E-04
    18 OT DIIS     0.15E+00    0.3     0.00006639      -516.0827321075 -3.81E-04
    19 OT DIIS     0.15E+00    0.3     0.00006134      -516.0830851040 -3.53E-04
    20 OT DIIS     0.15E+00    0.3     0.00005989      -516.0831940387 -1.09E-04
    21 OT DIIS     0.15E+00    0.3     0.00005176      -516.0838097955 -6.16E-04
    22 OT DIIS     0.15E+00    0.3     0.00004927      -516.0840025278 -1.93E-04

  *** SCF run converged in    22 steps ***


  Electronic density on regular grids:       -191.0000000036       -0.0000000036
  Core density on regular grids:              193.9999999907       -0.0000000093
  Total charge density on r-space grids:        2.9999999871
  Total charge density g-space grids:           2.9999999871

  Overlap energy of the core charge distribution:               0.00000040521918
  Self energy of the core charge distribution:              -1180.77596130715415
  Core Hamiltonian energy:                                    336.20935264206793
  Hartree energy:                                             429.37582235315108
  Exchange-correlation energy:                               -100.89321662107744

  Total energy:                                              -516.08400252779347

  outer SCF iter =    1 RMS gradient =   0.49E-04 energy =       -516.0840025278
  outer SCF loop converged in   1 iterations or   22 steps


  Integrated absolute spin density  :                               9.7344453595
  Ideal and single determinant S**2 :                    8.750000      10.693747

 ENERGY| Total FORCE_EVAL ( QS ) energy (a.u.):             -516.084157180367470


 --------  Informations at step =     1 ------------
  Optimization Method        =                 BFGS
  Total Energy               =      -516.0841571804
  Real energy change         =        -0.5558812495
  Predicted change in energy =        -0.4733749016
  Scaling factor             =         0.8941954530
  Step size                  =         0.4724315332
  Trust radius               =         0.4724315332
  Decrease in energy         =                  YES
  Used time                  =                7.044

  Convergence check :
  Max. step size             =         0.4724315332
  Conv. limit for step size  =         0.5000000000
  Convergence in step size   =                  YES
  RMS step size              =         0.1597545217
  Conv. limit for RMS step   =         0.0500000000
  Convergence in RMS step    =                   NO
  Max. gradient              =         0.1268882600
  Conv. limit for gradients  =         0.5000000000
  Conv. in gradients         =                  YES
  RMS gradient               =         0.0272755135
  Conv. limit for RMS grad.  =         0.0500000000
  Conv. in RMS gradients     =                  YES
 ---------------------------------------------------

 --------------------------
 OPTIMIZATION STEP:      2
 --------------------------

  Step is scaled; Scaling factor =  0.26331

 Spin 1

 Number of electrons:                                                         98
 Number of occupied orbitals:                                                 98
 Number of molecular orbitals:                                                98

 Spin 2

 Number of electrons:                                                         93
 Number of occupied orbitals:                                                 93
 Number of molecular orbitals:                                                93

 Number of orbital functions:                                                157
 Number of independent orbital functions:                                    157

 Extrapolation method: ASPC


 SCF WAVEFUNCTION OPTIMIZATION

  ----------------------------------- OT ---------------------------------------
  Minimizer      : DIIS                : direct inversion
                                         in the iterative subspace
                                         using   7 DIIS vectors
                                         safer DIIS on
  Preconditioner : FULL_KINETIC        : inversion of T + eS
  Precond_solver : DEFAULT
  stepsize       :    0.15000000                  energy_gap     :    0.20000000
  eps_taylor     :   0.10000E-15                  max_taylor     :             4
  ----------------------------------- OT ---------------------------------------

  Step     Update method      Time    Convergence         Total energy    Change
  ------------------------------------------------------------------------------
     1 OT DIIS     0.15E+00    0.2     0.00248189      -516.2818795542 -5.16E+02
     2 OT DIIS     0.15E+00    0.3     0.00223443      -516.3081775849 -2.63E-02
     3 OT DIIS     0.15E+00    0.3     0.00115150      -516.4162687778 -1.08E-01
     4 OT DIIS     0.15E+00    0.3     0.00067563      -516.4561187630 -3.98E-02
     5 OT DIIS     0.15E+00    0.3     0.00057861      -516.4614747324 -5.36E-03
     6 OT DIIS     0.15E+00    0.3     0.00032893      -516.4730844300 -1.16E-02
     7 OT DIIS     0.15E+00    0.3     0.00024226      -516.4759804469 -2.90E-03
     8 OT DIIS     0.15E+00    0.3     0.00021083      -516.4768872203 -9.07E-04
     9 OT DIIS     0.15E+00    0.3     0.00015227      -516.4784907490 -1.60E-03
    10 OT DIIS     0.15E+00    0.3     0.00012618      -516.4792167438 -7.26E-04
    11 OT DIIS     0.15E+00    0.3     0.00011507      -516.4795962790 -3.80E-04
    12 OT DIIS     0.15E+00    0.3     0.00010448      -516.4799773816 -3.81E-04
    13 OT DIIS     0.15E+00    0.3     0.00009507      -516.4802804134 -3.03E-04
    14 OT DIIS     0.15E+00    0.3     0.00007835      -516.4808558371 -5.75E-04
    15 OT DIIS     0.15E+00    0.3     0.00007459      -516.4809940825 -1.38E-04
    16 OT DIIS     0.15E+00    0.3     0.00007210      -516.4810868254 -9.27E-05
    17 OT DIIS     0.15E+00    0.3     0.00005948      -516.4815223884 -4.36E-04
    18 OT DIIS     0.15E+00    0.3     0.00005712      -516.4816065973 -8.42E-05
    19 OT DIIS     0.15E+00    0.3     0.00005023      -516.4818927845 -2.86E-04
    20 OT DIIS     0.15E+00    0.3     0.00004835      -516.4819604474 -6.77E-05

  *** SCF run converged in    20 steps ***


  Electronic density on regular grids:       -190.9999999840        0.0000000160
  Core density on regular grids:              193.9999999907       -0.0000000093
  Total charge density on r-space grids:        3.0000000066
  Total charge density g-space grids:           3.0000000066

  Overlap energy of the core charge distribution:               0.00000016125960
  Self energy of the core charge distribution:              -1180.77596130715415
  Core Hamiltonian energy:                                    334.66103688747614
  Hartree energy:                                             430.30491684593159
  Exchange-correlation energy:                               -100.67195303492413

  Total energy:                                              -516.48196044741110

  outer SCF iter =    1 RMS gradient =   0.48E-04 energy =       -516.4819604474
  outer SCF loop converged in   1 iterations or   20 steps


  Integrated absolute spin density  :                               9.6561142231
  Ideal and single determinant S**2 :                    8.750000      10.620405

 ENERGY| Total FORCE_EVAL ( QS ) energy (a.u.):             -516.482127191826407


 --------  Informations at step =     2 ------------
  Optimization Method        =                 BFGS
  Total Energy               =      -516.4821271918
  Real energy change         =        -0.3979700115
  Predicted change in energy =        -0.2351202443
  Scaling factor             =         0.2633106862
  Step size                  =         0.4724315332
  Trust radius               =         0.4724315332
  Decrease in energy         =                  YES
  Used time                  =                6.423

  Convergence check :
  Max. step size             =         0.4724315332
  Conv. limit for step size  =         0.5000000000
  Convergence in step size   =                  YES
  RMS step size              =         0.0880502763
  Conv. limit for RMS step   =         0.0500000000
  Convergence in RMS step    =                   NO
  Max. gradient              =         0.3322367620
  Conv. limit for gradients  =         0.5000000000
  Conv. in gradients         =                  YES
  RMS gradient               =         0.0580151160
  Conv. limit for RMS grad.  =         0.0500000000
  Conv. for gradients        =                   NO
 ---------------------------------------------------

 --------------------------
 OPTIMIZATION STEP:      3
 --------------------------

  Step is scaled; Scaling factor =  0.00013

 Spin 1

 Number of electrons:                                                         98
 Number of occupied orbitals:                                                 98
 Number of molecular orbitals:                                                98

 Spin 2

 Number of electrons:                                                         93
 Number of occupied orbitals:                                                 93
 Number of molecular orbitals:                                                93

 Number of orbital functions:                                                157
 Number of independent orbital functions:                                    157

 Extrapolation method: ASPC


 SCF WAVEFUNCTION OPTIMIZATION

  ----------------------------------- OT ---------------------------------------
  Minimizer      : DIIS                : direct inversion
                                         in the iterative subspace
                                         using   7 DIIS vectors
                                         safer DIIS on
  Preconditioner : FULL_KINETIC        : inversion of T + eS
  Precond_solver : DEFAULT
  stepsize       :    0.15000000                  energy_gap     :    0.20000000
  eps_taylor     :   0.10000E-15                  max_taylor     :             4
  ----------------------------------- OT ---------------------------------------

  Step     Update method      Time    Convergence         Total energy    Change
  ------------------------------------------------------------------------------
     1 OT DIIS     0.15E+00    0.2     0.00327960      -514.4780519495 -5.14E+02
     2 OT DIIS     0.15E+00    0.3     0.00266920      -514.5218392826 -4.38E-02
     3 OT DIIS     0.15E+00    0.3     0.00101737      -514.6120008407 -9.02E-02
     4 OT DIIS     0.15E+00    0.3     0.00068282      -514.6295301881 -1.75E-02
     5 OT DIIS     0.15E+00    0.3     0.00055726      -514.6331747049 -3.64E-03
     6 OT DIIS     0.15E+00    0.3     0.00031192      -514.6458809582 -1.27E-02
     7 OT DIIS     0.15E+00    0.3     0.00029643      -514.6472152497 -1.33E-03
     8 OT DIIS     0.15E+00    0.3     0.00020342      -514.6500436512 -2.83E-03
     9 OT DIIS     0.15E+00    0.3     0.00017972      -514.6511348965 -1.09E-03
    10 OT DIIS     0.15E+00    0.3     0.00016000      -514.6520757485 -9.41E-04
    11 OT DIIS     0.15E+00    0.3     0.00014253      -514.6532971388 -1.22E-03
    12 OT DIIS     0.15E+00    0.3     0.00013829      -514.6537081087 -4.11E-04
    13 OT DIIS     0.15E+00    0.3     0.00012908      -514.6547476573 -1.04E-03
    14 OT DIIS     0.15E+00    0.3     0.00012691      -514.6550290738 -2.81E-04
    15 OT DIIS     0.15E+00    0.3     0.00012108      -514.6559296042 -9.01E-04
    16 OT DIIS     0.15E+00    0.3     0.00011933      -514.6563784911 -4.49E-04
    17 OT DIIS     0.15E+00    0.3     0.00011855      -514.6565119994 -1.34E-04
    18 OT DIIS     0.15E+00    0.3     0.00011445      -514.6575104429 -9.98E-04
    19 OT SD       0.15E+00    0.3     0.00011467      -514.6579942742 -4.84E-04
    20 OT SD       0.15E+00    0.3     0.00011455      -514.6580533853 -5.91E-05
    21 OT SD       0.15E+00    0.3     0.00011449      -514.6581123905 -5.90E-05
    22 OT SD       0.15E+00    0.3     0.00011445      -514.6581713372 -5.89E-05
    23 OT SD       0.15E+00    0.3     0.00011444      -514.6582302564 -5.89E-05
    24 OT SD       0.15E+00    0.3     0.00011445      -514.6582891696 -5.89E-05
    25 OT SD       0.15E+00    0.3     0.00011447      -514.6583480926 -5.89E-05
    26 OT SD       0.15E+00    0.3     0.00011450      -514.6584070373 -5.89E-05
    27 OT SD       0.15E+00    0.3     0.00011453      -514.6584660136 -5.90E-05
    28 OT SD       0.15E+00    0.3     0.00011458      -514.6585250293 -5.90E-05
    29 OT SD       0.15E+00    0.3     0.00011463      -514.6585840912 -5.91E-05
    30 OT SD       0.15E+00    0.3     0.00011468      -514.6586432055 -5.91E-05
    31 OT SD       0.15E+00    0.3     0.00011474      -514.6587023773 -5.92E-05
    32 OT SD       0.15E+00    0.3     0.00011480      -514.6587616116 -5.92E-05
    33 OT SD       0.15E+00    0.3     0.00011487      -514.6588209128 -5.93E-05
    34 OT SD       0.15E+00    0.3     0.00011494      -514.6588802851 -5.94E-05
    35 OT SD       0.15E+00    0.3     0.00011502      -514.6589397324 -5.94E-05
    36 OT SD       0.15E+00    0.3     0.00011510      -514.6589992585 -5.95E-05
    37 OT SD       0.15E+00    0.3     0.00011518      -514.6590588668 -5.96E-05
    38 OT SD       0.15E+00    0.3     0.00011526      -514.6591185608 -5.97E-05
    39 OT SD       0.15E+00    0.3     0.00011535      -514.6591783438 -5.98E-05
    40 OT SD       0.15E+00    0.3     0.00011544      -514.6592382189 -5.99E-05
    41 OT SD       0.15E+00    0.3     0.00011554      -514.6592981890 -6.00E-05
    42 OT SD       0.15E+00    0.3     0.00011563      -514.6593582573 -6.01E-05
    43 OT SD       0.15E+00    0.3     0.00011573      -514.6594184265 -6.02E-05
    44 OT DIIS     0.15E+00    0.3     0.00011583      -514.6594786995 -6.03E-05
    45 OT SD       0.15E+00    0.3     0.00016166      -514.6596010930 -1.22E-04
    46 OT SD       0.15E+00    0.3     0.00015466      -514.6597158661 -1.15E-04
    47 OT SD       0.15E+00    0.3     0.00015008      -514.6598217152 -1.06E-04
    48 OT SD       0.15E+00    0.3     0.00014709      -514.6599219228 -1.00E-04
    49 OT SD       0.15E+00    0.3     0.00014514      -514.6600185289 -9.66E-05
    50 OT SD       0.15E+00    0.3     0.00014386      -514.6601128189 -9.43E-05

  Leaving inner SCF loop after reaching    50 steps.


  Electronic density on regular grids:       -190.9999999687        0.0000000313
  Core density on regular grids:              193.9999999907       -0.0000000093
  Total charge density on r-space grids:        3.0000000219
  Total charge density g-space grids:           3.0000000219

  Overlap energy of the core charge distribution:               0.00000015255370
  Self energy of the core charge distribution:              -1180.77596130715415
  Core Hamiltonian energy:                                    335.03467767295410
  Hartree energy:                                             432.23072740767100
  Exchange-correlation energy:                               -101.14955674488186

  Total energy:                                              -514.66011281885721

  outer SCF iter =    1 RMS gradient =   0.14E-03 energy =       -514.6601128189

  ----------------------------------- OT ---------------------------------------
  Minimizer      : DIIS                : direct inversion
                                         in the iterative subspace
                                         using   7 DIIS vectors
                                         safer DIIS on
  Preconditioner : FULL_KINETIC        : inversion of T + eS
  Precond_solver : DEFAULT
  stepsize       :    0.15000000                  energy_gap     :    0.20000000
  eps_taylor     :   0.10000E-15                  max_taylor     :             4
  ----------------------------------- OT ---------------------------------------

  Step     Update method      Time    Convergence         Total energy    Change
  ------------------------------------------------------------------------------
     1 OT DIIS     0.15E+00    0.6     0.00014246      -514.6602056148 -9.28E-05
     2 OT DIIS     0.15E+00    0.3     0.00014204      -514.6602967393 -9.11E-05
     3 OT DIIS     0.15E+00    0.3     0.00014148      -514.6606591837 -3.62E-04
     4 OT SD       0.15E+00    0.3     0.00014216      -514.6609501229 -2.91E-04
     5 OT SD       0.15E+00    0.3     0.00014229      -514.6610410641 -9.09E-05
     6 OT SD       0.15E+00    0.3     0.00014245      -514.6611321814 -9.11E-05
     7 OT SD       0.15E+00    0.3     0.00014263      -514.6612235084 -9.13E-05
     8 OT SD       0.15E+00    0.3     0.00014282      -514.6613150706 -9.16E-05
     9 OT SD       0.15E+00    0.3     0.00014303      -514.6614068872 -9.18E-05
    10 OT SD       0.15E+00    0.3     0.00014325      -514.6614989737 -9.21E-05
    11 OT SD       0.15E+00    0.3     0.00014347      -514.6615913426 -9.24E-05
    12 OT SD       0.15E+00    0.3     0.00014370      -514.6616840040 -9.27E-05
    13 OT SD       0.15E+00    0.3     0.00014394      -514.6617769668 -9.30E-05
    14 OT SD       0.15E+00    0.3     0.00014418      -514.6618702382 -9.33E-05
    15 OT SD       0.15E+00    0.3     0.00014443      -514.6619638248 -9.36E-05
    16 OT SD       0.15E+00    0.3     0.00014468      -514.6620577321 -9.39E-05
    17 OT SD       0.15E+00    0.3     0.00014493      -514.6621519648 -9.42E-05
    18 OT SD       0.15E+00    0.3     0.00014518      -514.6622465273 -9.46E-05
    19 OT SD       0.15E+00    0.3     0.00014544      -514.6623414231 -9.49E-05
    20 OT SD       0.15E+00    0.3     0.00014570      -514.6624366556 -9.52E-05
    21 OT SD       0.15E+00    0.3     0.00014596      -514.6625322273 -9.56E-05
    22 OT DIIS     0.15E+00    0.3     0.00014622      -514.6626281406 -9.59E-05
    23 OT SD       0.15E+00    0.3     0.00020879      -514.6627578371 -1.30E-04
    24 OT DIIS     0.15E+00    0.3     0.00020248      -514.6629507211 -1.93E-04
    25 OT SD       0.15E+00    0.3     0.00019856      -514.6637688130 -8.18E-04
    26 OT SD       0.15E+00    0.3     0.00018493      -514.6639396171 -1.71E-04
    27 OT SD       0.15E+00    0.3     0.00017562      -514.6640892688 -1.50E-04
    28 OT SD       0.15E+00    0.3     0.00016924      -514.6642252709 -1.36E-04
    29 OT DIIS     0.15E+00    0.3     0.00016484      -514.6643522909 -1.27E-04
    30 OT SD       0.15E+00    0.3     0.00012978      -514.6682573630 -3.91E-03
    31 OT DIIS     0.15E+00    0.3     0.00012406      -514.6683313146 -7.40E-05
    32 OT SD       0.15E+00    0.3     0.00010702      -514.6685237121 -1.92E-04
    33 OT DIIS     0.15E+00    0.3     0.00010606      -514.6685749902 -5.13E-05
    34 OT DIIS     0.15E+00    0.3     0.00009636      -514.6694858832 -9.11E-04
    35 OT DIIS     0.15E+00    0.3     0.00011707      -514.6695518198 -6.59E-05
    36 OT DIIS     0.15E+00    0.3     0.00010882      -514.6696822777 -1.30E-04
    37 OT DIIS     0.15E+00    0.3     0.00008786      -514.6705250317 -8.43E-04
    38 OT DIIS     0.15E+00    0.3     0.00008450      -514.6708738428 -3.49E-04
    39 OT DIIS     0.15E+00    0.3     0.00008193      -514.6711451640 -2.71E-04
    40 OT DIIS     0.15E+00    0.3     0.00007806      -514.6715799918 -4.35E-04
    41 OT DIIS     0.15E+00    0.3     0.00007763      -514.6716306994 -5.07E-05
    42 OT DIIS     0.15E+00    0.3     0.00007570      -514.6719573911 -3.27E-04
    43 OT DIIS     0.15E+00    0.3     0.00007892      -514.6719756221 -1.82E-05
    44 OT DIIS     0.15E+00    0.3     0.00007482      -514.6721937522 -2.18E-04
    45 OT DIIS     0.15E+00    0.3     0.00007439      -514.6724055510 -2.12E-04
    46 OT DIIS     0.15E+00    0.3     0.00007424      -514.6724828181 -7.73E-05
    47 OT DIIS     0.15E+00    0.3     0.00007408      -514.6726334819 -1.51E-04
    48 OT SD       0.15E+00    0.3     0.00007415      -514.6726972025 -6.37E-05
    49 OT SD       0.15E+00    0.3     0.00007419      -514.6727219397 -2.47E-05
    50 OT SD       0.15E+00    0.3     0.00007422      -514.6727467007 -2.48E-05

  Leaving inner SCF loop after reaching    50 steps.


  Electronic density on regular grids:       -190.9999996924        0.0000003076
  Core density on regular grids:              193.9999999907       -0.0000000093
  Total charge density on r-space grids:        3.0000002983
  Total charge density g-space grids:           3.0000002983

  Overlap energy of the core charge distribution:               0.00000015255370
  Self energy of the core charge distribution:              -1180.77596130715415
  Core Hamiltonian energy:                                    334.89284597783296
  Hartree energy:                                             432.32053229830927
  Exchange-correlation energy:                               -101.11016382226171

  Total energy:                                              -514.67274670072004

  outer SCF iter =    2 RMS gradient =   0.74E-04 energy =       -514.6727467007

  ----------------------------------- OT ---------------------------------------
  Minimizer      : DIIS                : direct inversion
                                         in the iterative subspace
                                         using   7 DIIS vectors
                                         safer DIIS on
  Preconditioner : FULL_KINETIC        : inversion of T + eS
  Precond_solver : DEFAULT
  stepsize       :    0.15000000                  energy_gap     :    0.20000000
  eps_taylor     :   0.10000E-15                  max_taylor     :             4
  ----------------------------------- OT ---------------------------------------

  Step     Update method      Time    Convergence         Total energy    Change
  ------------------------------------------------------------------------------
     1 OT DIIS     0.15E+00    0.6     0.00007380      -514.6727714881 -2.48E-05
     2 OT SD       0.15E+00    0.3     0.00007382      -514.6727962238 -2.47E-05
     3 OT SD       0.15E+00    0.3     0.00007385      -514.6728207432 -2.45E-05
     4 OT SD       0.15E+00    0.3     0.00007389      -514.6728452833 -2.45E-05
     5 OT SD       0.15E+00    0.3     0.00007392      -514.6728698460 -2.46E-05
     6 OT SD       0.15E+00    0.3     0.00007396      -514.6728944332 -2.46E-05
     7 OT SD       0.15E+00    0.3     0.00007400      -514.6729190468 -2.46E-05
     8 OT SD       0.15E+00    0.3     0.00007405      -514.6729436884 -2.46E-05
     9 OT SD       0.15E+00    0.3     0.00007409      -514.6729683596 -2.47E-05
    10 OT SD       0.15E+00    0.3     0.00007414      -514.6729930617 -2.47E-05
    11 OT SD       0.15E+00    0.3     0.00007419      -514.6730177964 -2.47E-05
    12 OT SD       0.15E+00    0.3     0.00007425      -514.6730425649 -2.48E-05
    13 OT SD       0.15E+00    0.3     0.00007430      -514.6730673685 -2.48E-05
    14 OT SD       0.15E+00    0.3     0.00007436      -514.6730922087 -2.48E-05
    15 OT SD       0.15E+00    0.3     0.00007441      -514.6731170864 -2.49E-05
    16 OT DIIS     0.15E+00    0.3     0.00007447      -514.6731420030 -2.49E-05
    17 OT SD       0.15E+00    0.3     0.00010218      -514.6735501258 -4.08E-04
    18 OT SD       0.15E+00    0.3     0.00009919      -514.6735963629 -4.62E-05
    19 OT SD       0.15E+00    0.3     0.00009689      -514.6736400727 -4.37E-05
    20 OT SD       0.15E+00    0.3     0.00009510      -514.6736818848 -4.18E-05
    21 OT SD       0.15E+00    0.3     0.00009370      -514.6737222490 -4.04E-05
    22 OT SD       0.15E+00    0.3     0.00009260      -514.6737614951 -3.92E-05
    23 OT DIIS     0.15E+00    0.3     0.00009172      -514.6737998687 -3.84E-05
    24 OT SD       0.15E+00    0.3     0.00008797      -514.6747615809 -9.62E-04
    25 OT DIIS     0.15E+00    0.3     0.00008795      -514.6747963876 -3.48E-05
    26 OT SD       0.15E+00    0.3     0.00008860      -514.6749344408 -1.38E-04
    27 OT SD       0.15E+00    0.3     0.00008850      -514.6749697276 -3.53E-05
    28 OT SD       0.15E+00    0.3     0.00008843      -514.6750049390 -3.52E-05
    29 OT SD       0.15E+00    0.3     0.00008837      -514.6750400998 -3.52E-05
    30 OT SD       0.15E+00    0.3     0.00008833      -514.6750752208 -3.51E-05
    31 OT DIIS     0.15E+00    0.4     0.00008829      -514.6751103075 -3.51E-05
    32 OT DIIS     0.15E+00    0.3     0.00010992      -514.6753378055 -2.27E-04
    33 OT SD       0.15E+00    0.3     0.00008724      -514.6776698568 -2.33E-03
    34 OT DIIS     0.15E+00    0.3     0.00008645      -514.6777039281 -3.41E-05
    35 OT SD       0.15E+00    0.3     0.00009183      -514.6781532558 -4.49E-04
    36 OT SD       0.15E+00    0.3     0.00008969      -514.6781907022 -3.74E-05
    37 OT DIIS     0.15E+00    0.3     0.00008819      -514.6782265633 -3.59E-05
    38 OT DIIS     0.15E+00    0.3     0.00007244      -514.6793395648 -1.11E-03
    39 OT SD       0.15E+00    0.3     0.00006659      -514.6807006805 -1.36E-03
    40 OT SD       0.15E+00    0.3     0.00006366      -514.6807201641 -1.95E-05
    41 OT DIIS     0.15E+00    0.3     0.00006133      -514.6807380425 -1.79E-05
    42 OT SD       0.15E+00    0.3     0.00005188      -514.6808098251 -7.18E-05
    43 OT DIIS     0.15E+00    0.3     0.00005143      -514.6808218743 -1.20E-05
    44 OT DIIS     0.15E+00    0.3     0.00005946      -514.6808492530 -2.74E-05
    45 OT DIIS     0.15E+00    0.3     0.00004749      -514.6811728155 -3.24E-04

  *** SCF run converged in    45 steps ***


  Electronic density on regular grids:       -190.9999999843        0.0000000157
  Core density on regular grids:              193.9999999907       -0.0000000093
  Total charge density on r-space grids:        3.0000000063
  Total charge density g-space grids:           3.0000000063

  Overlap energy of the core charge distribution:               0.00000015255370
  Self energy of the core charge distribution:              -1180.77596130715415
  Core Hamiltonian energy:                                    334.78409094370198
  Hartree energy:                                             432.39879919094994
  Exchange-correlation energy:                               -101.08810179554447

  Total energy:                                              -514.68117281549303

  outer SCF iter =    3 RMS gradient =   0.47E-04 energy =       -514.6811728155
  outer SCF loop converged in   3 iterations or  145 steps


  Integrated absolute spin density  :                              10.6583159590
  Ideal and single determinant S**2 :                    8.750000      11.389520

 ENERGY| Total FORCE_EVAL ( QS ) energy (a.u.):             -514.681413169763573


 --------  Informations at step =     3 ------------
  Optimization Method        =                 BFGS
  Total Energy               =      -514.6814131698
  Real energy change         =         1.8007140221
  Predicted change in energy =        -0.8490120322
  Scaling factor             =         0.0001339822
  Step size                  =         0.4724315332
  Trust radius               =         0.4724315332
  Decrease in energy         =                   NO
  Used time                  =               43.033

  Convergence check :
  Max. step size             =         0.4724315332
  Conv. limit for step size  =         0.5000000000
  Convergence in step size   =                  YES
  RMS step size              =         0.0722004977
  Conv. limit for RMS step   =         0.0500000000
  Convergence in RMS step    =                   NO
  Max. gradient              =         7.6618767821
  Conv. limit for gradients  =         0.5000000000
  Conv. for gradients        =                   NO
  RMS gradient               =         1.1138254205
  Conv. limit for RMS grad.  =         0.0500000000
  Conv. for gradients        =                   NO
 ---------------------------------------------------

 --------------------------
 OPTIMIZATION STEP:      4
 --------------------------

  Step is scaled; Scaling factor =  0.31605

 Spin 1

 Number of electrons:                                                         98
 Number of occupied orbitals:                                                 98
 Number of molecular orbitals:                                                98

 Spin 2

 Number of electrons:                                                         93
 Number of occupied orbitals:                                                 93
 Number of molecular orbitals:                                                93

 Number of orbital functions:                                                157
 Number of independent orbital functions:                                    157

 Extrapolation method: ASPC


 SCF WAVEFUNCTION OPTIMIZATION

  ----------------------------------- OT ---------------------------------------
  Minimizer      : DIIS                : direct inversion
                                         in the iterative subspace
                                         using   7 DIIS vectors
                                         safer DIIS on
  Preconditioner : FULL_KINETIC        : inversion of T + eS
  Precond_solver : DEFAULT
  stepsize       :    0.15000000                  energy_gap     :    0.20000000
  eps_taylor     :   0.10000E-15                  max_taylor     :             4
  ----------------------------------- OT ---------------------------------------

  Step     Update method      Time    Convergence         Total energy    Change
  ------------------------------------------------------------------------------
     1 OT DIIS     0.15E+00    0.2     0.00614331      -516.3292582532 -5.16E+02
     2 OT DIIS     0.15E+00    0.3     0.00536580      -516.4882000187 -1.59E-01
     3 OT DIIS     0.15E+00    0.3     0.00193469      -516.9430538838 -4.55E-01
     4 OT DIIS     0.15E+00    0.3     0.00177912      -516.9547506610 -1.17E-02
     5 OT DIIS     0.15E+00    0.3     0.00111886      -517.0455471504 -9.08E-02
     6 OT DIIS     0.15E+00    0.3     0.00100295      -517.0476869834 -2.14E-03
     7 OT DIIS     0.15E+00    0.3     0.00062898      -517.0887743028 -4.11E-02
     8 OT DIIS     0.15E+00    0.3     0.00055935      -517.0910155480 -2.24E-03
     9 OT DIIS     0.15E+00    0.3     0.00038696      -517.1041990747 -1.32E-02
    10 OT DIIS     0.15E+00    0.3     0.00032470      -517.1088034000 -4.60E-03
    11 OT DIIS     0.15E+00    0.3     0.00029129      -517.1107636937 -1.96E-03
    12 OT DIIS     0.15E+00    0.3     0.00024819      -517.1142084827 -3.44E-03
    13 OT DIIS     0.15E+00    0.3     0.00022473      -517.1162630265 -2.05E-03
    14 OT DIIS     0.15E+00    0.3     0.00019891      -517.1187430179 -2.48E-03
    15 OT DIIS     0.15E+00    0.3     0.00018904      -517.1197243781 -9.81E-04
    16 OT DIIS     0.15E+00    0.3     0.00015870      -517.1223120473 -2.59E-03
    17 OT DIIS     0.15E+00    0.3     0.00015058      -517.1231254987 -8.13E-04
    18 OT DIIS     0.15E+00    0.3     0.00013806      -517.1242183993 -1.09E-03
    19 OT DIIS     0.15E+00    0.3     0.00012498      -517.1255556363 -1.34E-03
    20 OT DIIS     0.15E+00    0.3     0.00011762      -517.1257568229 -2.01E-04
    21 OT DIIS     0.15E+00    0.3     0.00009916      -517.1272583334 -1.50E-03
    22 OT DIIS     0.15E+00    0.3     0.00009554      -517.1275098958 -2.52E-04
    23 OT DIIS     0.15E+00    0.3     0.00009227      -517.1276382145 -1.28E-04
    24 OT DIIS     0.15E+00    0.3     0.00008204      -517.1283844257 -7.46E-04
    25 OT DIIS     0.15E+00    0.3     0.00007742      -517.1287619314 -3.78E-04
    26 OT DIIS     0.15E+00    0.3     0.00007380      -517.1291475220 -3.86E-04
    27 OT DIIS     0.15E+00    0.3     0.00007110      -517.1293605134 -2.13E-04
    28 OT DIIS     0.15E+00    0.3     0.00006141      -517.1300210421 -6.61E-04
    29 OT DIIS     0.15E+00    0.3     0.00005981      -517.1301457664 -1.25E-04
    30 OT DIIS     0.15E+00    0.3     0.00005609      -517.1304267882 -2.81E-04
    31 OT DIIS     0.15E+00    0.3     0.00005508      -517.1305212134 -9.44E-05
    32 OT DIIS     0.15E+00    0.3     0.00004850      -517.1310559075 -5.35E-04

  *** SCF run converged in    32 steps ***


  Electronic density on regular grids:       -190.9999999986        0.0000000014
  Core density on regular grids:              193.9999999907       -0.0000000093
  Total charge density on r-space grids:        2.9999999921
  Total charge density g-space grids:           2.9999999921

  Overlap energy of the core charge distribution:               0.00000008872105
  Self energy of the core charge distribution:              -1180.77596130715415
  Core Hamiltonian energy:                                    333.54568461845474
  Hartree energy:                                             430.72313562780329
  Exchange-correlation energy:                               -100.62391493536816

  Total energy:                                              -517.13105590754333

  outer SCF iter =    1 RMS gradient =   0.49E-04 energy =       -517.1310559075
  outer SCF loop converged in   1 iterations or   32 steps


  Integrated absolute spin density  :                              10.2886696700
  Ideal and single determinant S**2 :                    8.750000      11.105643

 ENERGY| Total FORCE_EVAL ( QS ) energy (a.u.):             -517.131119722273525


 --------  Informations at step =     4 ------------
  Optimization Method        =                 BFGS
  Total Energy               =      -517.1311197223
  Real energy change         =        -2.4497065525
  Predicted change in energy =        -3.1349365604
  Scaling factor             =         0.3160544605
  Step size                  =         0.4724315332
  Trust radius               =         0.4724315332
  Decrease in energy         =                  YES
  Used time                  =               10.066

  Convergence check :
  Max. step size             =         0.4724315332
  Conv. limit for step size  =         0.5000000000
  Convergence in step size   =                  YES
  RMS step size              =         0.0971354729
  Conv. limit for RMS step   =         0.0500000000
  Convergence in RMS step    =                   NO
  Max. gradient              =         0.3564152066
  Conv. limit for gradients  =         0.5000000000
  Conv. in gradients         =                  YES
  RMS gradient               =         0.0522774138
  Conv. limit for RMS grad.  =         0.0500000000
  Conv. for gradients        =                   NO
 ---------------------------------------------------

 --------------------------
 OPTIMIZATION STEP:      5
 --------------------------

  Step is scaled; Scaling factor =  0.30392

 Spin 1

 Number of electrons:                                                         98
 Number of occupied orbitals:                                                 98
 Number of molecular orbitals:                                                98

 Spin 2

 Number of electrons:                                                         93
 Number of occupied orbitals:                                                 93
 Number of molecular orbitals:                                                93

 Number of orbital functions:                                                157
 Number of independent orbital functions:                                    157

 Extrapolation method: ASPC


 SCF WAVEFUNCTION OPTIMIZATION

  ----------------------------------- OT ---------------------------------------
  Minimizer      : DIIS                : direct inversion
                                         in the iterative subspace
                                         using   7 DIIS vectors
                                         safer DIIS on
  Preconditioner : FULL_KINETIC        : inversion of T + eS
  Precond_solver : DEFAULT
  stepsize       :    0.15000000                  energy_gap     :    0.20000000
  eps_taylor     :   0.10000E-15                  max_taylor     :             4
  ----------------------------------- OT ---------------------------------------

  Step     Update method      Time    Convergence         Total energy    Change
  ------------------------------------------------------------------------------
     1 OT DIIS     0.15E+00    0.2     0.00879645      -516.2134403831 -5.16E+02
     2 OT DIIS     0.15E+00    0.3     0.00746468      -516.5352700456 -3.22E-01
     3 OT DIIS     0.15E+00    0.3     0.00215470      -517.2834848020 -7.48E-01
     4 OT DIIS     0.15E+00    0.3     0.00183204      -517.3047311243 -2.12E-02
     5 OT DIIS     0.15E+00    0.3     0.00089708      -517.3661969685 -6.15E-02
     6 OT DIIS     0.15E+00    0.3     0.00081552      -517.3848594063 -1.87E-02
     7 OT DIIS     0.15E+00    0.3     0.00053322      -517.3951544556 -1.03E-02
     8 OT DIIS     0.15E+00    0.3     0.00045505      -517.4012029796 -6.05E-03
     9 OT DIIS     0.15E+00    0.3     0.00035731      -517.4085495794 -7.35E-03
    10 OT DIIS     0.15E+00    0.3     0.00031124      -517.4121809940 -3.63E-03
    11 OT DIIS     0.15E+00    0.3     0.00026790      -517.4152243646 -3.04E-03
    12 OT DIIS     0.15E+00    0.3     0.00022107      -517.4187875966 -3.56E-03
    13 OT DIIS     0.15E+00    0.3     0.00021044      -517.4197164332 -9.29E-04
    14 OT DIIS     0.15E+00    0.3     0.00018826      -517.4217450206 -2.03E-03
    15 OT DIIS     0.15E+00    0.3     0.00018150      -517.4224617463 -7.17E-04
    16 OT DIIS     0.15E+00    0.3     0.00016378      -517.4245666499 -2.10E-03
    17 OT DIIS     0.15E+00    0.3     0.00015185      -517.4260104315 -1.44E-03
    18 OT DIIS     0.15E+00    0.3     0.00014711      -517.4265599972 -5.50E-04
    19 OT DIIS     0.15E+00    0.3     0.00013630      -517.4280320518 -1.47E-03
    20 OT DIIS     0.15E+00    0.3     0.00013306      -517.4285738284 -5.42E-04
    21 OT DIIS     0.15E+00    0.3     0.00013164      -517.4288286920 -2.55E-04
    22 OT DIIS     0.15E+00    0.3     0.00012872      -517.4294830834 -6.54E-04
    23 OT DIIS     0.15E+00    0.3     0.00012729      -517.4297975250 -3.14E-04
    24 OT DIIS     0.15E+00    0.3     0.00012282      -517.4311524545 -1.35E-03
    25 OT SD       0.15E+00    0.3     0.00012268      -517.4316443771 -4.92E-04
    26 OT DIIS     0.15E+00    0.3     0.00012232      -517.4317119600 -6.76E-05
    27 OT DIIS     0.15E+00    0.3     0.00012252      -517.4318894248 -1.77E-04
    28 OT DIIS     0.15E+00    0.3     0.00012079      -517.4324556628 -5.66E-04
    29 OT DIIS     0.15E+00    0.3     0.00012055      -517.4326159310 -1.60E-04
    30 OT DIIS     0.15E+00    0.3     0.00011891      -517.4334560108 -8.40E-04
    31 OT DIIS     0.15E+00    0.3     0.00011690      -517.4343658262 -9.10E-04
    32 OT SD       0.15E+00    0.3     0.00011537      -517.4354722490 -1.11E-03
    33 OT DIIS     0.15E+00    0.3     0.00011511      -517.4355320444 -5.98E-05
    34 OT SD       0.15E+00    0.3     0.00011470      -517.4360255750 -4.94E-04
    35 OT DIIS     0.15E+00    0.3     0.00011457      -517.4360847142 -5.91E-05
    36 OT DIIS     0.15E+00    0.3     0.00011456      -517.4362973561 -2.13E-04
    37 OT DIIS     0.15E+00    0.3     0.00011325      -517.4364878625 -1.91E-04
    38 OT DIIS     0.15E+00    0.6     0.00011409      -517.4368113829 -3.24E-04
    39 OT DIIS     0.15E+00    0.3     0.00010947      -517.4378854485 -1.07E-03
    40 OT DIIS     0.15E+00    0.3     0.00010790      -517.4385479977 -6.63E-04
    41 OT DIIS     0.15E+00    0.3     0.00010650      -517.4389407528 -3.93E-04
    42 OT DIIS     0.15E+00    0.3     0.00010418      -517.4398199230 -8.79E-04
    43 OT SD       0.15E+00    0.3     0.00010443      -517.4399643260 -1.44E-04
    44 OT DIIS     0.15E+00    0.3     0.00010388      -517.4400132425 -4.89E-05
    45 OT DIIS     0.15E+00    0.3     0.00010225      -517.4407317139 -7.18E-04
    46 OT SD       0.15E+00    0.3     0.00009793      -517.4411022624 -3.71E-04
    47 OT DIIS     0.15E+00    0.3     0.00009738      -517.4411452650 -4.30E-05
    48 OT SD       0.15E+00    0.3     0.00009049      -517.4424573711 -1.31E-03
    49 OT DIIS     0.15E+00    0.3     0.00008987      -517.4424940676 -3.67E-05
    50 OT DIIS     0.15E+00    0.3     0.00013828      -517.4424434310  5.06E-05

  Leaving inner SCF loop after reaching    50 steps.


  Electronic density on regular grids:       -190.9999999850        0.0000000150
  Core density on regular grids:              193.9999999907       -0.0000000093
  Total charge density on r-space grids:        3.0000000057
  Total charge density g-space grids:           3.0000000057

  Overlap energy of the core charge distribution:               0.00000006199023
  Self energy of the core charge distribution:              -1180.77596130715415
  Core Hamiltonian energy:                                    332.65823448983912
  Hartree energy:                                             431.20846131599546
  Exchange-correlation energy:                               -100.53317799164475

  Total energy:                                              -517.44244343097398

  outer SCF iter =    1 RMS gradient =   0.14E-03 energy =       -517.4424434310

  ----------------------------------- OT ---------------------------------------
  Minimizer      : DIIS                : direct inversion
                                         in the iterative subspace
                                         using   7 DIIS vectors
                                         safer DIIS on
  Preconditioner : FULL_KINETIC        : inversion of T + eS
  Precond_solver : DEFAULT
  stepsize       :    0.15000000                  energy_gap     :    0.20000000
  eps_taylor     :   0.10000E-15                  max_taylor     :             4
  ----------------------------------- OT ---------------------------------------

  Step     Update method      Time    Convergence         Total energy    Change
  ------------------------------------------------------------------------------
     1 OT DIIS     0.15E+00    0.6     0.00010207      -517.4433417419 -8.98E-04
     2 OT DIIS     0.15E+00    0.3     0.00009805      -517.4433875993 -4.59E-05
     3 OT DIIS     0.15E+00    0.3     0.00008973      -517.4435894808 -2.02E-04
     4 OT DIIS     0.15E+00    0.3     0.00008549      -517.4441436557 -5.54E-04
     5 OT DIIS     0.15E+00    0.3     0.00008402      -517.4443131608 -1.70E-04
     6 OT DIIS     0.15E+00    0.3     0.00007597      -517.4451159798 -8.03E-04
     7 OT DIIS     0.15E+00    0.3     0.00007478      -517.4452270291 -1.11E-04
     8 OT DIIS     0.15E+00    0.3     0.00007283      -517.4454938069 -2.67E-04
     9 OT SD       0.15E+00    0.3     0.00005771      -517.4467138277 -1.22E-03
    10 OT DIIS     0.15E+00    0.3     0.00005561      -517.4467285105 -1.47E-05
    11 OT DIIS     0.15E+00    0.3     0.00005813      -517.4468270193 -9.85E-05
    12 OT SD       0.15E+00    0.3     0.00005101      -517.4469225511 -9.55E-05
    13 OT DIIS     0.15E+00    0.3     0.00004939      -517.4469340519 -1.15E-05

  *** SCF run converged in    13 steps ***


  Electronic density on regular grids:       -190.9999999850        0.0000000150
  Core density on regular grids:              193.9999999907       -0.0000000093
  Total charge density on r-space grids:        3.0000000057
  Total charge density g-space grids:           3.0000000057

  Overlap energy of the core charge distribution:               0.00000006199023
  Self energy of the core charge distribution:              -1180.77596130715415
  Core Hamiltonian energy:                                    332.61887142789220
  Hartree energy:                                             431.23962952877963
  Exchange-correlation energy:                               -100.52947376345745

  Total energy:                                              -517.44693405194948

  outer SCF iter =    2 RMS gradient =   0.49E-04 energy =       -517.4469340519
  outer SCF loop converged in   2 iterations or   63 steps


  Integrated absolute spin density  :                              10.1769930889
  Ideal and single determinant S**2 :                    8.750000      11.089659

 ENERGY| Total FORCE_EVAL ( QS ) energy (a.u.):             -517.447276308752976


 --------  Informations at step =     5 ------------
  Optimization Method        =                 BFGS
  Total Energy               =      -517.4472763088
  Real energy change         =        -0.3161565865
  Predicted change in energy =        -0.3527369544
  Scaling factor             =         0.3039205308
  Step size                  =         0.4724315332
  Trust radius               =         0.4724315332
  Decrease in energy         =                  YES
  Used time                  =               19.619

  Convergence check :
  Max. step size             =         0.4724315332
  Conv. limit for step size  =         0.5000000000
  Convergence in step size   =                  YES
  RMS step size              =         0.1090569754
  Conv. limit for RMS step   =         0.0500000000
  Convergence in RMS step    =                   NO
  Max. gradient              =         0.3657977366
  Conv. limit for gradients  =         0.5000000000
  Conv. in gradients         =                  YES
  RMS gradient               =         0.0631433924
  Conv. limit for RMS grad.  =         0.0500000000
  Conv. for gradients        =                   NO
 ---------------------------------------------------

 --------------------------
 OPTIMIZATION STEP:      6
 --------------------------

  Step is scaled; Scaling factor =  0.12904

 Spin 1

 Number of electrons:                                                         98
 Number of occupied orbitals:                                                 98
 Number of molecular orbitals:                                                98

 Spin 2

 Number of electrons:                                                         93
 Number of occupied orbitals:                                                 93
 Number of molecular orbitals:                                                93

 Number of orbital functions:                                                157
 Number of independent orbital functions:                                    157

 Extrapolation method: ASPC


 SCF WAVEFUNCTION OPTIMIZATION

  ----------------------------------- OT ---------------------------------------
  Minimizer      : DIIS                : direct inversion
                                         in the iterative subspace
                                         using   7 DIIS vectors
                                         safer DIIS on
  Preconditioner : FULL_KINETIC        : inversion of T + eS
  Precond_solver : DEFAULT
  stepsize       :    0.15000000                  energy_gap     :    0.20000000
  eps_taylor     :   0.10000E-15                  max_taylor     :             4
  ----------------------------------- OT ---------------------------------------

  Step     Update method      Time    Convergence         Total energy    Change
  ------------------------------------------------------------------------------
     1 OT DIIS     0.15E+00    0.2     0.00480716      -516.6141097829 -5.17E+02
     2 OT DIIS     0.15E+00    0.3     0.00402768      -516.7095098612 -9.54E-02
     3 OT DIIS     0.15E+00    0.3     0.00153765      -516.9377793514 -2.28E-01
     4 OT DIIS     0.15E+00    0.3     0.00130442      -516.9600343730 -2.23E-02
     5 OT DIIS     0.15E+00    0.3     0.00082130      -517.0066115848 -4.66E-02
     6 OT DIIS     0.15E+00    0.3     0.00055629      -517.0274843093 -2.09E-02
     7 OT DIIS     0.15E+00    0.3     0.00047911      -517.0353924701 -7.91E-03
     8 OT DIIS     0.15E+00    0.3     0.00038216      -517.0422120862 -6.82E-03
     9 OT DIIS     0.15E+00    0.3     0.00030884      -517.0477685921 -5.56E-03
    10 OT DIIS     0.15E+00    0.3     0.00028195      -517.0496773739 -1.91E-03
    11 OT DIIS     0.15E+00    0.3     0.00024203      -517.0533840254 -3.71E-03
    12 OT DIIS     0.15E+00    0.3     0.00022953      -517.0546965789 -1.31E-03
    13 OT DIIS     0.15E+00    0.3     0.00020785      -517.0570555637 -2.36E-03
    14 OT DIIS     0.15E+00    0.3     0.00019693      -517.0582843049 -1.23E-03
    15 OT DIIS     0.15E+00    0.3     0.00015755      -517.0621244072 -3.84E-03
    16 OT DIIS     0.15E+00    0.3     0.00015298      -517.0625961778 -4.72E-04
    17 OT DIIS     0.15E+00    0.3     0.00013621      -517.0643372197 -1.74E-03
    18 OT DIIS     0.15E+00    0.3     0.00012739      -517.0650961713 -7.59E-04
    19 OT DIIS     0.15E+00    0.3     0.00011802      -517.0657857901 -6.90E-04
    20 OT DIIS     0.15E+00    0.3     0.00011205      -517.0662531469 -4.67E-04
    21 OT DIIS     0.15E+00    0.3     0.00010812      -517.0665382046 -2.85E-04
    22 OT DIIS     0.15E+00    0.3     0.00010177      -517.0669495939 -4.11E-04
    23 OT DIIS     0.15E+00    0.3     0.00009855      -517.0671845403 -2.35E-04
    24 OT DIIS     0.15E+00    0.3     0.00009393      -517.0674776568 -2.93E-04
    25 OT DIIS     0.15E+00    0.3     0.00009208      -517.0676087807 -1.31E-04
    26 OT DIIS     0.15E+00    0.3     0.00008587      -517.0681695345 -5.61E-04
    27 OT DIIS     0.15E+00    0.3     0.00008309      -517.0684191213 -2.50E-04
    28 OT DIIS     0.15E+00    0.3     0.00007959      -517.0687452794 -3.26E-04
    29 OT DIIS     0.15E+00    0.3     0.00007772      -517.0689240243 -1.79E-04
    30 OT DIIS     0.15E+00    0.3     0.00007485      -517.0692109625 -2.87E-04
    31 OT DIIS     0.15E+00    0.3     0.00007265      -517.0693997075 -1.89E-04
    32 OT DIIS     0.15E+00    0.3     0.00007068      -517.0695778189 -1.78E-04
    33 OT DIIS     0.15E+00    0.3     0.00006843      -517.0697630482 -1.85E-04
    34 OT DIIS     0.15E+00    0.3     0.00006733      -517.0698421836 -7.91E-05
    35 OT DIIS     0.15E+00    0.3     0.00006531      -517.0699889836 -1.47E-04
    36 OT DIIS     0.15E+00    0.3     0.00006449      -517.0700544029 -6.54E-05
    37 OT DIIS     0.15E+00    0.3     0.00006310      -517.0701515209 -9.71E-05
    38 OT DIIS     0.15E+00    0.3     0.00006234      -517.0702105929 -5.91E-05
    39 OT DIIS     0.15E+00    0.3     0.00006009      -517.0704197774 -2.09E-04
    40 OT DIIS     0.15E+00    0.3     0.00005933      -517.0704909047 -7.11E-05
    41 OT DIIS     0.15E+00    0.3     0.00005832      -517.0705880480 -9.71E-05
    42 OT DIIS     0.15E+00    0.3     0.00005772      -517.0706584902 -7.04E-05
    43 OT DIIS     0.15E+00    0.3     0.00005629      -517.0708157245 -1.57E-04
    44 OT DIIS     0.15E+00    0.3     0.00005557      -517.0708986583 -8.29E-05
    45 OT DIIS     0.15E+00    0.3     0.00005486      -517.0709871932 -8.85E-05
    46 OT DIIS     0.15E+00    0.3     0.00005425      -517.0710578420 -7.06E-05
    47 OT DIIS     0.15E+00    0.3     0.00005352      -517.0711242140 -6.64E-05
    48 OT DIIS     0.15E+00    0.3     0.00005306      -517.0711734848 -4.93E-05
    49 OT DIIS     0.15E+00    0.3     0.00005243      -517.0712467685 -7.33E-05
    50 OT DIIS     0.15E+00    0.3     0.00005195      -517.0712989890 -5.22E-05

  Leaving inner SCF loop after reaching    50 steps.


  Electronic density on regular grids:       -190.9999999989        0.0000000011
  Core density on regular grids:              193.9999999906       -0.0000000094
[...]
 flops   17 x   32 x    2               213863808       0.0%    100.0%      0.0%
 flops   17 x    2 x   32               213863808       0.0%    100.0%      0.0%
 flops    4 x   32 x   32               217497600       0.0%    100.0%      0.0%
 flops    1 x   29 x    1               228355976       0.0%    100.0%      0.0%
 flops    1 x   29 x   17               279767640       0.0%    100.0%      0.0%
 flops   17 x   29 x    1               279767640       0.0%    100.0%      0.0%
 flops    1 x    1 x   32               324745920       0.0%    100.0%      0.0%
 flops   17 x   29 x   17               351784094       0.0%    100.0%      0.0%
 flops    1 x    4 x   29               354435216       0.0%    100.0%      0.0%
 flops    4 x    1 x   29               364862224       0.0%    100.0%      0.0%
 flops    1 x   17 x   32               371116800       0.0%    100.0%      0.0%
 flops   17 x    1 x   32               371116800       0.0%    100.0%      0.0%
 flops    4 x   17 x   29               403589520       0.0%    100.0%      0.0%
 flops   17 x    4 x   29               403589520       0.0%    100.0%      0.0%
 flops   14 x    2 x   14               533120000       0.0%    100.0%      0.0%
 flops   17 x   17 x   32               630898560       0.0%    100.0%      0.0%
 flops    4 x    2 x    4               711393280       0.0%    100.0%      0.0%
 flops   29 x   29 x   17               752451110       0.0%    100.0%      0.0%
 flops   14 x   29 x   17               938672000       0.0%    100.0%      0.0%
 flops   17 x   29 x   14               938672000       0.0%    100.0%      0.0%
 flops   17 x   29 x   29               941829172       0.0%    100.0%      0.0%
 flops    1 x   32 x    1              1254573952       0.0%    100.0%      0.0%
 flops    2 x   32 x   14              1414694400       0.0%    100.0%      0.0%
 flops   32 x    2 x   14              1414694400       0.0%    100.0%      0.0%
 flops    1 x   29 x    4              1495918832       0.0%    100.0%      0.0%
 flops    4 x   29 x    1              1495918832       0.0%    100.0%      0.0%
 flops   17 x   32 x    1              1537017600       0.0%    100.0%      0.0%
 flops    1 x   32 x   17              1537017600       0.0%    100.0%      0.0%
 flops   29 x   32 x   17              1660581760       0.0%    100.0%      0.0%
 flops   32 x   29 x   17              1660581760       0.0%    100.0%      0.0%
 flops    4 x   29 x   17              1678605840       0.0%    100.0%      0.0%
 flops   17 x   29 x    4              1678605840       0.0%    100.0%      0.0%
 flops   14 x    2 x   32              1761231360       0.0%    100.0%      0.0%
 flops   14 x   32 x    2              1761231360       0.0%    100.0%      0.0%
 flops   17 x   32 x   17              1935328960       0.0%    100.0%      0.0%
 flops    1 x    4 x   32              1955504640       0.0%    100.0%      0.0%
 flops    4 x    1 x   32              2013032960       0.0%    100.0%      0.0%
 flops   32 x   32 x    2              2046873600       0.0%    100.0%      0.0%
 flops    2 x   32 x   32              2046873600       0.0%    100.0%      0.0%
 flops   32 x    2 x   32              2046873600       0.0%    100.0%      0.0%
 flops   17 x   32 x   29              2067350144       0.0%    100.0%      0.0%
 flops   17 x   29 x   32              2067350144       0.0%    100.0%      0.0%
 flops    4 x   17 x   32              2226700800       0.0%    100.0%      0.0%
 flops   17 x    4 x   32              2226700800       0.0%    100.0%      0.0%
 flops    4 x    4 x   29              2592574944       0.0%    100.0%      0.0%
 flops   29 x   29 x   29              2757127672       0.0%    100.0%      0.0%
 flops   17 x   32 x   14              5178880000       0.0%    100.0%      0.0%
 flops   14 x   32 x   17              5178880000       0.0%    100.0%      0.0%
 flops   29 x   29 x   32              6084695552       0.0%    100.0%      0.0%
 flops   29 x   32 x   29              6084695552       0.0%    100.0%      0.0%
 flops   32 x   29 x   29              6084695552       0.0%    100.0%      0.0%
 flops   29 x   29 x   14              6196656200       0.0%    100.0%      0.0%
 flops   14 x   29 x   29              7714560280       0.0%    100.0%      0.0%
 flops   14 x   29 x   14              7730240000       0.0%    100.0%      0.0%
 flops    1 x   32 x    4              8218553344       0.0%    100.0%      0.0%
 flops    4 x   32 x    1              8218553344       0.0%    100.0%      0.0%
 flops   17 x   32 x    4              9222105600       0.0%    100.0%      0.0%
 flops    4 x   32 x   17              9222105600       0.0%    100.0%      0.0%
 flops    4 x   29 x    4             10388399488       0.0%    100.0%      0.0%
 flops   32 x   32 x   17             11910379520       0.0%    100.0%      0.0%
 flops   32 x   32 x   29             13428293632       0.0%    100.0%      0.0%
 flops   29 x   32 x   32             13428293632       0.0%    100.0%      0.0%
 flops   32 x   29 x   32             13428293632       0.0%    100.0%      0.0%
 flops   29 x   32 x   14             13675379200       0.0%    100.0%      0.0%
 flops   32 x   29 x   14             13675379200       0.0%    100.0%      0.0%
 flops    4 x    4 x   32             14303861760       0.0%    100.0%      0.0%
 flops   17 x   32 x   32             14858702848       0.0%    100.0%      0.0%
 flops   14 x   29 x   32             17025236480       0.0%    100.0%      0.0%
 flops   14 x   32 x   29             17025236480       0.0%    100.0%      0.0%
 flops   14 x   32 x   14             42649600000       0.0%    100.0%      0.0%
 flops    4 x   32 x    4             57073000448       0.0%    100.0%      0.0%
 flops   32 x   32 x   14             98085478400       0.0%    100.0%      0.0%
 flops   14 x   32 x   32            122112040960       0.0%    100.0%      0.0%
 flops   32 x   32 x   32            127884787712       0.0%    100.0%      0.0%
 flops total                       744.125473E+09       0.0%    100.0%      0.0%
 flops max/rank                     53.558524E+09       0.0%    100.0%      0.0%
 matmuls inhomo. stacks                         0       0.0%      0.0%      0.0%
 matmuls total                          283339682       0.0%    100.0%      0.0%
 number of processed stacks              89888851       0.0%    100.0%      0.0%
 average stack size                                     0.0       3.2       0.0
 marketing flops                   797.862789E+09
 -------------------------------------------------------------------------------
 # multiplications                         286427
 max memory usage/rank             107.237376E+06
 # max total images/rank                        1
 # MPI messages exchanged               693153340
 # MPI messages filtered                        0
 MPI messages size (elements):
  total size                        71.831831E+09
  min size                           0.000000E+00
  max size                           1.024000E+03
  average size                     103.630501E+00
 MPI breakdown and total messages size (bytes):
             size <=      128           515271490                 46076160
       128 < size <=     8192           177881850             575296245040
      8192 < size <=    32768                   0                        0
     32768 < size <=   131072                   0                        0
    131072 < size <=  4194304                   0                        0
   4194304 < size <= 16777216                   0                        0
  16777216 < size                               0                        0
 -------------------------------------------------------------------------------

 MEMORY| Estimated peak process memory [MiB]                                 103

 -------------------------------------------------------------------------------
 -                                                                             -
 -                         MESSAGE PASSING PERFORMANCE                         -
 -                                                                             -
 -------------------------------------------------------------------------------

 ROUTINE             CALLS  TOT TIME [s]  AVE VOLUME [Bytes]  PERFORMANCE [MB/s]
 MP_Group                3         0.000
 MP_Bcast           483252         1.659               4697.             1368.30
 MP_Allreduce      1927681       240.551                 91.                0.73
 MP_Sync             10557         0.062
 MP_Alltoall       1170238       568.188             157389.              324.16
 MP_ISendRecv      3226800        93.073              30720.             1065.05
 MP_Wait          33827878       622.626
 MP_comm_split       10555         4.217
 MP_ISend         13224419        14.909              10081.             8942.28
 MP_IRecv         13224419         2.565               9861.            50835.66
 MP_Recv              8540         0.133              11973.              768.96
 MP_Memory        11339736         2.026
 -------------------------------------------------------------------------------


 -------------------------------------------------------------------------------
 -                                                                             -
 -                           R E F E R E N C E S                               -
 -                                                                             -
 -------------------------------------------------------------------------------
 
 CP2K version 4.1, the CP2K developers group (2016).
 CP2K is freely available from https://www.cp2k.org/ .

 Schuett, Ole; Messmer, Peter; Hutter, Juerg; VandeVondele, Joost. 
 Electronic Structure Calculations on Graphics Processing Units, John Wiley & Sons, Ltd, 173-190 (2016). 
 GPU-Accelerated Sparse Matrix-Matrix Multiplication for Linear Scaling Density Functional Theory.
 http://dx.doi.org/10.1002/9781118670712.ch8


 Borstnik, U; VandeVondele, J; Weber, V; Hutter, J. 
 PARALLEL COMPUTING, 40 (5-6), 47-58 (2014). 
 Sparse matrix multiplication: The distributed block-compressed sparse
 row library.
 http://dx.doi.org/10.1016/j.parco.2014.03.012


 Hutter, J; Iannuzzi, M; Schiffmann, F; VandeVondele, J. 
 WILEY INTERDISCIPLINARY REVIEWS-COMPUTATIONAL MOLECULAR SCIENCE, 4 (1), 15-25 (2014). 
 CP2K: atomistic simulations of condensed matter systems.
 http://dx.doi.org/10.1002/wcms.1159


 VandeVondele, J; Hutter, J. 
 JOURNAL OF CHEMICAL PHYSICS, 127 (11), 114105 (2007). 
 Gaussian basis sets for accurate calculations on molecular systems in
 gas and condensed phases.
 http://dx.doi.org/10.1063/1.2770708


 Krack, M. 
 THEORETICAL CHEMISTRY ACCOUNTS, 114 (1-3), 145-152 (2005). 
 Pseudopotentials for H to Kr optimized for gradient-corrected
 exchange-correlation functionals.
 http://dx.doi.org/10.1007/s00214-005-0655-y


 VandeVondele, J; Krack, M; Mohamed, F; Parrinello, M; Chassaing, T;
 Hutter, J. COMPUTER PHYSICS COMMUNICATIONS, 167 (2), 103-128 (2005). 
 QUICKSTEP: Fast and accurate density functional calculations using a
 mixed Gaussian and plane waves approach.
 http://dx.doi.org/10.1016/j.cpc.2004.12.014


 Frigo, M; Johnson, SG. 
 PROCEEDINGS OF THE IEEE, 93 (2), 216-231 (2005). 
 The design and implementation of FFTW3.
 http://dx.doi.org/10.1109/JPROC.2004.840301


 Kolafa, J. 
 JOURNAL OF COMPUTATIONAL CHEMISTRY, 25 (3), 335-342 (2004). 
 Time-reversible always stable predictor-corrector method for molecular dynamics of polarizable molecules.
 http://dx.doi.org/10.1002/jcc.10385


 VandeVondele, J; Hutter, J. 
 JOURNAL OF CHEMICAL PHYSICS, 118 (10), 4365-4369 (2003). 
 An efficient orbital transformation method for electronic structure
 calculations.
 http://dx.doi.org/10.1063/1.1543154


 Hartwigsen, C; Goedecker, S; Hutter, J. 
 PHYSICAL REVIEW B, 58 (7), 3641-3662 (1998). 
 Relativistic separable dual-space Gaussian pseudopotentials from H to Rn.
 http://dx.doi.org/10.1103/PhysRevB.58.3641


 Lippert, G; Hutter, J; Parrinello, M. 
 MOLECULAR PHYSICS, 92 (3), 477-487 (1997). 
 A hybrid Gaussian and plane wave density functional scheme.
 http://dx.doi.org/10.1080/002689797170220


 Perdew, JP; Burke, K; Ernzerhof, M. 
 PHYSICAL REVIEW LETTERS, 77 (18), 3865-3868 (1996). 
 Generalized gradient approximation made simple.
 http://dx.doi.org/10.1103/PhysRevLett.77.3865


 Goedecker, S; Teter, M; Hutter, J. 
 PHYSICAL REVIEW B, 54 (3), 1703-1710 (1996). 
 Separable dual-space Gaussian pseudopotentials.
 http://dx.doi.org/10.1103/PhysRevB.54.1703


 -------------------------------------------------------------------------------
 -                                                                             -
 -                                T I M I N G                                  -
 -                                                                             -
 -------------------------------------------------------------------------------
 SUBROUTINE                       CALLS  ASD         SELF TIME        TOTAL TIME
                                MAXIMUM       AVERAGE  MAXIMUM  AVERAGE  MAXIMUM
 CP2K                                 1  1.0    0.017    0.032 2685.561 2685.563
 cp_geo_opt                           1  2.0    0.001    0.001 2684.553 2684.554
 geoopt_bfgs                          1  3.0    0.019    0.157 2684.553 2684.554
 cp_eval_at                         100  4.0    0.017    0.045 2682.063 2682.076
 qs_forces                           99  5.0    0.011    0.013 2668.045 2668.058
 qs_energies                        100  6.0    0.007    0.009 2659.132 2659.146
 scf_env_do_scf                     100  7.0    0.012    0.077 2637.889 2637.898
 scf_env_do_scf_inner_loop         6623  8.0    0.267    1.574 2604.297 2604.370
 rebuild_ks_matrix                 6722 10.0    0.043    0.057 1134.846 1136.331
 qs_ks_build_kohn_sham_matrix      6722 11.0    1.075    1.349 1134.802 1136.303
 qs_ks_update_qs_env               6800  9.0    0.213    0.293 1121.244 1122.713
 rs_pw_transfer                   53979 13.5    1.292    2.419  881.360  947.252
 qs_scf_new_mos                    6623  9.0    0.030    0.044  878.723  879.204
 qs_scf_loop_do_ot                 6623 10.0    0.021    0.027  878.693  879.176
 ot_scf_mini                       6623 11.0    0.196    0.222  847.040  847.400
 dbcsr_multiply_generic          286427 14.1    3.559    3.653  726.888  747.122
 sum_up_and_integrate              6722 12.0    1.514    2.477  651.494  678.690
 integrate_v_rspace               13444 13.0   55.049   85.797  649.953  677.232
 qs_rho_update_rho                 6723  9.0    0.109    0.204  637.506  638.393
 calculate_rho_elec               13446 10.0   64.488  100.290  637.397  638.323
 potential_pw2rs                  13444 14.0    0.275    0.361  562.855  583.003
 density_rs2pw                    13446 11.0    0.270    0.430  475.304  544.397
 ot_mini                           6623 12.0    0.030    0.042  499.394  500.347
 pw_transfer                     181600 13.7    9.392   10.866  460.813  489.078
 mp_waitany                      623047 15.5  304.800  488.361  304.800  488.361
 fft_wrap_pw1pw2                 168156 14.8    0.821    1.040  449.667  479.086
 fft_wrap_pw1pw2_200             141266 15.9   10.831   14.884  417.669  446.786
 qs_ot_get_derivative             13246 13.0    0.115    0.123  436.533  437.660
 fft3d_ps                        168156 16.8   79.433  125.229  402.161  435.786
 mp_waitall_1                   ******* 17.2  316.113  417.828  316.113  417.828
 qs_vxc_create                     6722 12.0    0.180    0.335  395.916  397.589
 xc_vxc_pw_create                  6722 13.0    7.619    9.577  395.735  397.396
 mp_alltoall_z22v                168156 18.8  291.087  331.914  291.087  331.914
 rs_pw_transfer_PW2RS_200         13543 15.9   87.364  106.388  301.562  315.642
 rs_pw_transfer_RS2PW_200         13546 13.0   70.258   91.195  232.909  304.172
 make_m2s                        572854 15.1    4.051    4.158  261.007  299.600
 make_images                     572854 16.1   59.253   61.868  245.208  282.733
 multiply_cannon                 286427 15.1   30.639   33.032  223.041  267.121
 qs_ot_get_p                      13600 11.9    0.046    0.051  259.463  264.062
 qs_ot_get_derivative_diag        10164 14.0    0.240    0.256  255.154  255.947
 xc_rho_set_and_dset_create        6722 14.0    4.723    7.369  180.184  236.722
 yz_to_x                          67322 17.8    4.012    7.157  194.572  231.144
 rs_pw_transfer_PW2RS_70          13444 16.0   30.002   49.451  186.775  223.760
 make_images_sizes               572854 17.1    0.321    0.365  161.252  190.603
 mp_alltoall_i44                 572854 18.1  160.931  190.290  160.931  190.290
 mp_sum_b                        515952 15.3  110.738  168.272  110.738  168.272
 rs_pw_transfer_RS2PW_70          13446 13.0   39.313   69.441  158.821  166.771
 mp_sum_l                        515978 15.3  111.423  166.669  111.423  166.669
 mp_isendrecv_dv                3226800 15.5   73.523  145.613   73.523  145.613
 qs_ot_p2m_diag                   10456 13.0    0.454    4.367  136.906  141.787
 rs_grid_zero                     40535 13.0  117.454  132.469  117.454  132.469
 xc_functional_eval                6722 15.0    0.065    0.168   73.714  131.129
 pbe_lsd_eval                      6722 16.0   73.649  131.099   73.649  131.099
 mp_alltoall_d11v                199691 16.2   41.875  125.890   41.875  125.890
 rs_distribute_matrix             27088 12.5    0.780    1.286   42.175  125.108
 x_to_yz                          73944 18.0    4.186    7.946  100.717  109.650
 mp_allgather_i34                286427 16.1   71.742  105.483   71.742  105.483
 multiply_cannon_metrocomm3     3150697 16.1    2.127    2.230   50.572   97.930
 cp_dbcsr_syevd                   10456 14.0    1.074    1.173   88.855   90.783
 dbcsr_arnoldi_extremal           13600 12.9    0.091    0.106   79.053   80.875
 dbcsr_arnoldi_normal_ev          13600 13.9    0.102    0.118   78.962   80.783
 qs_ot_get_derivative_taylor       3082 14.0    0.062    0.065   80.074   80.430
 multiply_cannon_metrocomm1     3150697 16.1    2.090    2.203   34.023   79.103
 cp_fm_syevd                      10555 14.9   70.322   72.589   77.012   77.501
 build_subspace                   13600 14.9    0.211    0.253   71.433   72.654
 mp_sum_d                        465656 15.2   63.044   70.440   63.044   70.440
 qs_ot_get_orbitals               13246 12.0    0.061    0.065   66.272   67.183
 dbcsr_matrix_colvec_multiply_l  226792 16.0    0.095    0.101   23.995   64.869
 dbcsr_matrix_vector_mult        226792 17.0    0.320    0.344   23.900   64.769
 mp_sum_dv                       880261 17.8   43.265   63.386   43.265   63.386
 Gram_Schmidt_ortho_d            213192 16.0    0.102    0.303   22.072   60.532
 ot_diis_step                      6623 13.0    0.205    0.260   59.901   59.947
 mp_bcast_b                      231822 15.8   21.321   58.753   21.321   58.753
 dbcsr_col_vec_to_rep_row        226792 18.0    0.235    0.303   13.235   54.585
 -------------------------------------------------------------------------------

 The number of warnings for this run is : 1
 
 -------------------------------------------------------------------------------
  **** **** ******  **  PROGRAM ENDED AT                 2023-03-24 21:51:51.134
 ***** ** ***  *** **   PROGRAM RAN ON            node131.pri.kelvin2.alces.netw
 **    ****   ******    PROGRAM RAN BY                                  40265864
 ***** **    ** ** **   PROGRAM PROCESS ID                                125523
  **** **  *******  **  PROGRAM STOPPED IN /mnt/scratch2/users/40265864/MSc_ML_M
                                           M/ln_replacements/xyz/Dy_L18_L20_L20_
                                           MeO_O/geometry_optimisation/run-6
