      51
 i =        1, E =      -518.0467977170
  C         1.0945442737       -0.8745696658       -0.0867582680
  O        -0.2335592601       -0.7705569686        0.3701967219
 Dy        -0.7480053483        0.8772591514        1.9487529401
  O         0.4126984187        1.8535153563        0.2177987387
  O        -1.9367640309       -0.8173346149        2.5744376787
  C        -3.1151222041       -0.6941650033        3.3073374419
  C        -4.3381810777       -1.5127824615        2.9421047614
  C        -2.9033227171       -0.0322391923        4.6358508582
  C        -1.8827206526        1.0179088040        4.9238439133
  O        -1.4441488892        1.7377849295        3.8059963347
  C        -1.5821832092        1.5577040905        6.3181285806
  O        -2.3389052981        0.5898512216        0.5181495811
  C        -2.7330000000        1.4434237837       -0.5327564044
  C        -3.0324173463        0.8920202174       -1.9248476875
  C        -3.0998666131        2.8135827492       -0.0462738060
  C        -2.7392653714        3.3605184097        1.2907243575
  O        -1.4497230897        3.0000420036        1.6975303334
  C        -3.4877976182        4.5033570086        2.0281303400
  F        -4.8251805387        4.4022095253        1.7615057528
  F        -2.9107482225        5.4966191313        1.2827552543
  F        -3.1105045758        4.5689854435        3.3325705422
  O         0.5603829787       -0.6038509725        2.8565268716
  C         1.3964552539       -0.4814192834        3.9800842816
  C         1.5064967526       -1.6229674383        4.9894134129
  C         2.3364524059        0.6918234133        3.9294033716
  C         2.1867315678        1.8630066380        3.0274579220
  O         0.8556420293        2.2110120712        2.7496906991
  C         3.2901224216        2.9066077114        2.6924565211
  F         4.5146151514        2.3030979313        2.7288524839
  F         3.0649664011        3.6361715509        3.8271740063
  F         2.9606247862        3.5916739644        1.5562620373
  H         1.7892026190       -0.9321959145        0.7616085103
  H         1.1802007002       -1.7773887090       -0.7124002298
  H         1.2737713113       -0.0083680756       -0.7392578937
  H         0.0188073859        2.1381659190       -0.6231947858
  H         1.3373793487        2.1556051359        0.2471777651
  H        -4.6278867312       -1.8027201964        3.9618730925
  H        -5.1427795205       -1.0180275342        2.3970911543
  H        -3.8349301254       -2.3213917417        2.4015155611
  H        -3.5608216129       -0.3287076567        5.4491145590
  H        -1.6252106289        0.7778578914        7.0799757858
  H        -0.7113819503        2.2149219885        6.2884467789
  H        -2.5095108940        2.1627082648        6.2996347174
  H        -3.0117084183       -0.1893628268       -1.7633733833
  H        -4.0683008873        1.2729094075       -1.9189964955
  H        -2.4592831458        1.2858493331       -2.7652568137
  H        -3.7509244887        3.4113615654       -0.6755828714
  H         1.4881535478       -1.3456353045        6.0432675719
  H         0.8143229059       -2.3908168862        4.6352868227
  H         2.5342984483       -1.8567535750        4.6487790582
  H         3.2273877751        0.6457654433        4.5479396304
      51
 i =        2, E =      -518.1928602573
  C         1.1255883925       -0.9353324800       -0.0952238852
  O        -0.1975025602       -0.7824791043        0.3044984619
 Dy        -0.7967055769        0.8637057969        2.0174084421
  O         0.4464271168        1.8495940950        0.1655250147
  O        -2.0544229155       -0.9311615321        2.6492934358
  C        -3.0852799398       -0.7490085100        3.3709603064
  C        -4.3004863747       -1.5118144779        2.9665683619
  C        -2.8947513397       -0.0159358317        4.6196256575
  C        -1.9541234109        1.0383462134        4.9224595671
  O        -1.5079417904        1.7523907337        3.9483860671
  C        -1.5857298725        1.5349830268        6.2909161262
  O        -2.4808918585        0.6105497525        0.3973994487
  C        -2.7807320785        1.4813364089       -0.4945233545
  C        -3.0279777442        0.9047747728       -1.8626013222
  C        -3.1244032188        2.8060988944       -0.0350407570
  C        -2.7041555556        3.3225362756        1.2287772083
  O        -1.5416878380        3.1266957061        1.6905181301
  C        -3.4331513980        4.4645759845        1.9768330913
  F        -4.7673804740        4.4154655565        1.7952556377
  F        -2.9550729045        5.5512971351        1.3183444300
  F        -3.1874108643        4.6045759524        3.2881678310
  O         0.6896874553       -0.6933747885        2.9466274059
  C         1.4407981622       -0.4613862417        3.9497910873
  C         1.4978400445       -1.5834496434        4.9466966111
  C         2.3422543686        0.6804039745        3.9164438198
  C         2.1370527098        1.8164085330        3.0819173145
  O         0.9931250218        2.3017713177        2.7870792579
  C         3.2314255454        2.8609938900        2.7295534936
  F         4.4721481658        2.3485933810        2.6738602670
  F         3.1181104087        3.6923407976        3.7930377567
  F         3.0246845638        3.5650871388        1.5937518183
  H         1.8213058781       -0.9236020560        0.7676598532
  H         1.1868977713       -1.8203420780       -0.7574610376
  H         1.2765834009       -0.0492303419       -0.7570063444
  H         0.0773953890        2.1971212822       -0.6802039908
  H         1.3604565957        2.2345342651        0.1835457376
  H        -4.7024921912       -1.8301785452        3.9379279024
  H        -5.1222362333       -1.0244986676        2.4184798726
  H        -3.8936526637       -2.3386338224        2.3732328004
  H        -3.5458967004       -0.3253398408        5.4397769484
  H        -1.6290936907        0.7932646892        7.0928019217
  H        -0.7250751796        2.2129920567        6.3034616631
  H        -2.4885961716        2.1802406548        6.3642205621
  H        -3.0033219372       -0.1872966721       -1.8097292860
  H        -4.0703221635        1.2522453309       -1.9991317314
  H        -2.4887676039        1.2887461527       -2.7424690730
  H        -3.7566725857        3.4213245798       -0.6764091879
  H         1.5080079564       -1.3513114310        6.0200968130
  H         0.8214462670       -2.3963590668        4.6688980951
  H         2.5343727345       -1.9062062327        4.7096588070
  H         3.2332407338        0.6474604243        4.5467570720
      51
 i =        3, E =      -518.2289456130
  C         1.1038222610       -0.9838813969       -0.1122280235
  O        -0.1992444971       -0.7722334180        0.3044708331
 Dy        -0.7535377811        0.8666861282        1.9216694888
  O         0.4806596073        1.8937471813        0.1067683730
  O        -2.0408363398       -0.8993743204        2.6707007803
  C        -3.0634699142       -0.7457698218        3.3693027032
  C        -4.2715219366       -1.5198445937        3.0308888584
  C        -2.9146262546       -0.0115236639        4.6378228835
  C        -1.9310870384        1.0251299490        4.9042042331
  O        -1.5445933044        1.7134965212        3.9430615040
  C        -1.6489518110        1.5175343501        6.2613164619
  O        -2.4986063800        0.6624360344        0.4441003946
  C        -2.7780058962        1.4461485921       -0.4867389151
  C        -3.0786901642        0.9378364567       -1.8430630491
  C        -3.1343390120        2.7863976314       -0.0315454405
  C        -2.6730802037        3.3880569316        1.2270886004
  O        -1.5528356273        3.0633993714        1.6675718864
  C        -3.4703089867        4.5202004516        1.9212178131
  F        -4.8068038201        4.4002078846        1.8127315525
  F        -2.9601254344        5.6246916550        1.3188703182
  F        -3.1915277056        4.5384175182        3.2354019718
  O         0.7098132065       -0.6235465456        2.9327739267
  C         1.4207889255       -0.4833819062        3.9487491873
  C         1.5562252381       -1.5735230948        4.9282075211
  C         2.3336435400        0.6651980434        3.8958055113
  C         2.1268649195        1.8728159060        3.0978481725
  O         0.9669404283        2.2061942463        2.7917270080
  C         3.2692287484        2.8695797919        2.7859055005
  F         4.4915812740        2.3344199986        2.6658449827
  F         3.1722536323        3.7390206572        3.8201895564
  F         3.0068563931        3.5010060409        1.6137840088
  H         1.8330137586       -0.9124005868        0.7281113406
  H         1.2229792930       -1.8543733907       -0.7728753028
  H         1.3050194084       -0.0849217478       -0.7498948107
  H         0.0719432484        2.2167244336       -0.7156618923
  H         1.3825547111        2.2679831695        0.1915770105
  H        -4.7827482012       -1.8942478897        3.9392962176
  H        -5.0685274902       -1.0048750531        2.4483862568
  H        -3.9536631522       -2.3515320896        2.3711034359
  H        -3.5586329785       -0.3326941990        5.4632831091
  H        -1.6300726889        0.8062191912        7.0957805937
  H        -0.7602286943        2.1701318190        6.2947377224
  H        -2.4984770393        2.2214313799        6.4581861247
  H        -2.9924808505       -0.1608942094       -1.8274130973
  H        -4.1262106289        1.2317391598       -2.0783695572
  H        -2.4887755318        1.3076637080       -2.7043488919
  H        -3.7611142555        3.4288913072       -0.6622155184
  H         1.5125726715       -1.3334606464        6.0031183879
  H         0.8315577172       -2.3670800071        4.6907597774
  H         2.5802305817       -1.9805833060        4.7569569187
  H         3.2297667498        0.6534273297        4.5311991333
      51
 i =        4, E =      -518.2533524726
  C         1.0964297591       -1.0191491465       -0.1278672883
  O        -0.1941275320       -0.7762236986        0.2914939832
 Dy        -0.6976402963        0.8919335256        1.8501631550
  O         0.5074232552        1.8992684264        0.0617947896
  O        -2.0116518373       -0.8302875787        2.6479014967
  C        -3.0569373026       -0.7888292163        3.3930957349
  C        -4.2775490763       -1.5564962365        3.0712134768
  C        -2.9527221489       -0.0537589190        4.6799827376
  C        -1.9953666157        1.0666332915        4.9148372880
  O        -1.4859141739        1.6689799139        3.8892042738
  C        -1.6903473705        1.5311742350        6.2820661287
  O        -2.4497436990        0.6544203148        0.4676380076
  C        -2.8589204138        1.4382716637       -0.4634963153
  C        -3.1221745165        0.9431346805       -1.8379602663
  C        -3.1548186223        2.8564060037       -0.0717403813
  C        -2.6737953529        3.3664748435        1.2156733631
  O        -1.5769107979        3.0406349678        1.6895819003
  C        -3.4466360957        4.5268734902        1.8974324900
  F        -4.7796716274        4.3883828169        1.7589866177
  F        -3.0432372801        5.7032965235        1.3297700110
  F        -3.1794694044        4.4890555278        3.2205665228
  O         0.6526889690       -0.5886783214        2.9231222319
  C         1.4659278483       -0.4988227144        3.9129546383
  C         1.5965735616       -1.5792200217        4.9085137245
  C         2.3824652960        0.6839132942        3.9493025847
  C         2.1145307184        1.8597199621        3.1163203813
  O         0.9678318328        2.1836867601        2.7372303815
  C         3.2600670037        2.8677861067        2.8181099700
  F         4.4793947520        2.3276065961        2.6936437384
  F         3.2821389944        3.8001663173        3.8191198827
  F         2.9601940088        3.4600331214        1.6245281962
  H         1.8470409862       -0.9175811641        0.6922136669
  H         1.2404303578       -1.8886547542       -0.7780527401
  H         1.3346630536       -0.1142874730       -0.7550130507
  H         0.0948050887        2.2501701737       -0.7450521053
  H         1.3864447015        2.3201292139        0.1852250776
  H        -4.8364302701       -1.9453681804        3.9485379999
  H        -5.0220408590       -0.9536860617        2.4755399144
  H        -3.9948698049       -2.3792763015        2.3786339543
  H        -3.5958724163       -0.3437049215        5.5110576918
  H        -1.6436854902        0.7893793447        7.0928238167
  H        -0.7670659018        2.1426717626        6.2788185040
  H        -2.5170298416        2.2472681050        6.5362033592
  H        -2.9938552487       -0.1554728298       -1.8451315963
  H        -4.1639913205        1.2133143364       -2.1371723479
  H        -2.4794247095        1.3473690120       -2.6562114650
  H        -3.8120725786        3.4633057565       -0.6976174661
  H         1.5222449543       -1.2942415904        5.9777179645
  H         0.8374072767       -2.3569374636        4.7084218354
  H         2.6126898686       -2.0413072826        4.8019337285
  H         3.2901386715        0.6462414006        4.5567023456
      51
 i =        5, E =      -518.2650222329
  C         1.1181876018       -1.0359384321       -0.1468101391
  O        -0.1709234832       -0.8121346136        0.2531786721
 Dy        -0.6762626551        0.8494238148        1.8517610367
  O         0.5253040067        1.8857706006        0.0298887927
  O        -2.0457935378       -0.8149845488        2.6496262972
  C        -3.0670988464       -0.8229258461        3.4389805334
  C        -4.2854706295       -1.5942239565        3.0732884759
  C        -2.9810758392       -0.0525333076        4.7173442600
  C        -2.0071126176        1.0535689109        4.9279625449
  O        -1.4826856933        1.6315750400        3.9095770366
  C        -1.7092658566        1.5572178323        6.2857435369
  O        -2.4668530975        0.6688074259        0.4270616252
  C        -2.8882217893        1.4562785719       -0.4809442183
  C        -3.1571402930        0.9249946714       -1.8360562187
  C        -3.2132085178        2.8598457538       -0.1069899502
  C        -2.6725156365        3.4408369406        1.1475906533
  O        -1.6059019547        3.0064356976        1.7214642361
  C        -3.4689234052        4.5518248314        1.9170097836
  F        -4.7892089341        4.3541820126        1.6691081303
  F        -3.1070934515        5.7246313002        1.3269815539
  F        -3.1569458119        4.5030120205        3.2277917248
  O         0.6755521394       -0.6030357306        2.9587377108
  C         1.4973438989       -0.4984968319        3.9225745291
  C         1.6121507184       -1.6062949415        4.8947480099
  C         2.4229519061        0.6702774938        3.9809906806
  C         2.1558910303        1.8837592231        3.1909547620
  O         1.0078380952        2.1723167874        2.6794225386
  C         3.2820350028        2.9112972441        2.8167411118
  F         4.4670994150        2.2824908399        2.7444345273
  F         3.3067594974        3.8412362143        3.8096002915
  F         2.9325404406        3.4699994910        1.6120064994
  H         1.8598970330       -0.9412375034        0.6754205232
  H         1.2325877897       -1.9250217426       -0.7763249214
  H         1.3578141922       -0.1310850873       -0.7809922909
  H         0.1422874163        2.2959209285       -0.7777639991
  H         1.3798344941        2.3858822971        0.1599794731
  H        -4.8494791708       -1.9627719811        3.9464422878
  H        -4.9904315249       -0.9081112639        2.5029808160
  H        -4.0190473725       -2.4165705186        2.3860210758
  H        -3.6249662296       -0.3564960250        5.5409456292
  H        -1.6723008955        0.7714156827        7.0619357379
  H        -0.7666395705        2.1353157661        6.2696627167
  H        -2.5289706374        2.2587579327        6.5972576914
  H        -3.0063753051       -0.1679195487       -1.8594878750
  H        -4.1834411425        1.2011103305       -2.1731064368
  H        -2.4747889634        1.3962072550       -2.6000086088
  H        -3.8457494934        3.4950442443       -0.7229344025
  H         1.5400616991       -1.2404570246        5.9485289427
  H         0.8373289490       -2.3696396406        4.7120029406
  H         2.6277009285       -2.0734961173        4.8319775885
  H         3.3348401556        0.6431156827        4.5740511068
      51
 i =        6, E =      -518.2743747283
  C         1.1408771344       -1.0525927501       -0.1705722150
  O        -0.1412632860       -0.8460352050        0.2389271833
 Dy        -0.6891234766        0.8165632620        1.8927882007
  O         0.5420615979        1.9012048473        0.0006409361
  O        -2.0948340286       -0.8396615502        2.6885589004
  C        -3.0796027217       -0.8342746152        3.4618843582
  C        -4.2925596010       -1.6127763799        3.0738894348
  C        -2.9934227194       -0.0647374183        4.7302120749
  C        -2.0369701541        1.0505112347        4.9436489307
  O        -1.4876587669        1.5871882101        3.9354811173
  C        -1.7126378927        1.5740943655        6.3018037777
  O        -2.4706967590        0.7095514023        0.4008716566
  C        -2.9631287167        1.4696202915       -0.5007875297
  C        -3.1821314871        0.9147583091       -1.8646853663
  C        -3.2153151078        2.8897623440       -0.0981804222
  C        -2.6881778036        3.4304614224        1.1602238600
  O        -1.6426835976        3.0126071079        1.6686110338
  C        -3.4818066801        4.5607942174        1.8774042846
  F        -4.8029701109        4.3469805113        1.6508021882
  F        -3.1424236641        5.7622213519        1.3393006327
  F        -3.1705239700        4.5426182301        3.1824473056
  O         0.7114392741       -0.5974862737        2.9935243577
  C         1.5690367269       -0.5285483949        3.9277044334
  C         1.6271332643       -1.6408489468        4.9181689885
  C         2.4297722097        0.7025221307        3.9857686584
  C         2.1826943507        1.8853833825        3.1788273902
  O         1.0599636078        2.1347587115        2.7173549519
  C         3.2893674896        2.9289912350        2.8357409032
  F         4.4587439794        2.2662663218        2.7613769717
  F         3.3275828644        3.8733309017        3.8025411033
  F         2.9306295874        3.4727389353        1.6267164363
  H         1.8686328507       -0.9695190570        0.6618457511
  H         1.2320520520       -1.9633900559       -0.7784675842
  H         1.3792990080       -0.1505160097       -0.8134478638
  H         0.1795368047        2.3255726789       -0.8125796615
  H         1.3781759975        2.4274582577        0.1445606275
  H        -4.8547137864       -1.9693177159        3.9445038327
  H        -4.9715303049       -0.8930747731        2.5282738799
  H        -4.0360666269       -2.4355343924        2.3939521143
  H        -3.6419643798       -0.3590986753        5.5579581975
  H        -1.6977236882        0.7511393473        7.0440873402
  H        -0.7689835756        2.1405181152        6.2699768782
  H        -2.5309333242        2.2576825750        6.6277774244
  H        -3.0199809509       -0.1707527865       -1.8660340960
  H        -4.1958622649        1.1945915120       -2.1929521320
  H        -2.4742510493        1.4333433212       -2.5785886626
  H        -3.8622859230        3.4968612416       -0.7346208282
  H         1.5582607319       -1.2029160860        5.9495686592
  H         0.8421789449       -2.3797940796        4.7085526544
  H         2.6348469751       -2.0866070329        4.8456507492
  H         3.3470766004        0.6318534692        4.5743765982
      51
 i =        7, E =      -518.2836023625
  C         1.1481558526       -1.0740084965       -0.1829324783
  O        -0.1289210045       -0.8462882624        0.2450686935
 Dy        -0.7116958361        0.8252180796        1.8363616249
  O         0.5632129508        1.9456060809       -0.0281491470
  O        -2.0887959182       -0.8112690840        2.6935238395
  C        -3.0745075354       -0.8643032376        3.4826186406
  C        -4.3077322989       -1.6158107223        3.0906242732
  C        -3.0071425352       -0.0720682211        4.7417949483
  C        -2.0665484688        1.0570985782        4.9462454324
  O        -1.4714504685        1.5516451695        3.9290251868
  C        -1.7238948598        1.5685290621        6.3146135635
  O        -2.4885940140        0.7193179362        0.3919686209
  C        -2.9574554987        1.4738285813       -0.4900425745
  C        -3.1939847542        0.9422753449       -1.8583831264
  C        -3.2377094999        2.8835484266       -0.1171873441
  C        -2.6955570782        3.4314968684        1.1319187488
  O        -1.6665696042        2.9996499935        1.6647270339
  C        -3.4715920343        4.5751510231        1.8366507196
  F        -4.7992343258        4.3544254680        1.6897862914
  F        -3.1335438939        5.7848091433        1.3274594000
  F        -3.2184787205        4.5518856303        3.1549435819
  O         0.7293911809       -0.5901533894        2.9958861133
  C         1.5701541341       -0.5195570998        3.9245770902
  C         1.6521015984       -1.6218620317        4.9230397361
  C         2.4586844698        0.6716010495        3.9878504687
  C         2.1647257424        1.8789104572        3.2119893805
  O         1.0442845442        2.1052699245        2.6942569171
  C         3.2766443589        2.9128029997        2.8660515964
  F         4.4631667001        2.2991155400        2.7594413439
  F         3.3568233696        3.9028254446        3.7915110105
  F         2.9570130808        3.4690082659        1.6605150106
  H         1.8806988747       -0.9876444328        0.6471296140
  H         1.2463361179       -1.9865057482       -0.7892852955
  H         1.3939066178       -0.1784879660       -0.8330238942
  H         0.1853350797        2.3278117415       -0.8380336958
  H         1.3903997187        2.4358036785        0.1512564965
  H        -4.8712590711       -1.9801614139        3.9541739483
  H        -4.9682911834       -0.9057790762        2.5413633494
  H        -4.0475253406       -2.4288038193        2.4008463695
  H        -3.6569502041       -0.3599582223        5.5733468673
  H        -1.7041620950        0.7447724719        7.0506289264
  H        -0.7850371897        2.1374339196        6.2770911067
  H        -2.5297925932        2.2569904621        6.6394197565
  H        -3.0281289250       -0.1438972574       -1.8749064236
  H        -4.2096571829        1.1853055757       -2.2233460906
  H        -2.4944546310        1.4342076319       -2.5701095113
  H        -3.8781955515        3.5120797584       -0.7441933211
  H         1.5701421953       -1.2089380291        5.9482406327
  H         0.8680516114       -2.3637637685        4.7188671990
  H         2.6444762800       -2.1103835737        4.8665899180
  H         3.3704331823        0.6339694973        4.5893032487
      51
 i =        8, E =      -518.2867001875
  C         1.1519315126       -1.0948099731       -0.1841065356
  O        -0.1278309781       -0.8330469117        0.2510528642
 Dy        -0.7072701659        0.8308866881        1.8435815246
  O         0.5689966219        1.9512506773       -0.0395667025
  O        -2.0926767233       -0.8063557987        2.6982117043
  C        -3.0746840101       -0.8441546969        3.4860411839
  C        -4.2993244404       -1.6119855822        3.1167219274
  C        -3.0173216580       -0.0782441942        4.7573628194
  C        -2.0492962380        1.0266181609        4.9347217392
  O        -1.4719467250        1.5310319374        3.9380141939
  C        -1.7498444438        1.5544074080        6.3013780889
  O        -2.4579210369        0.7147070933        0.4012076452
  C        -2.9818444213        1.4719599637       -0.4860683759
  C        -3.2123823156        0.9591478394       -1.8666188258
  C        -3.2587098726        2.8935899767       -0.1393380421
  C        -2.7073704183        3.4555005714        1.1019151559
  O        -1.6835318608        2.9674950117        1.6861195933
  C        -3.4758972299        4.5947973016        1.8394951172
  F        -4.8000588341        4.3775624684        1.6558935418
  F        -3.1219317751        5.7698780221        1.2979505208
  F        -3.2007132417        4.5579110747        3.1558016831
  O         0.7175714118       -0.5785217595        2.9870257016
  C         1.5810746349       -0.5157451423        3.9141260520
  C         1.6775235567       -1.6074756021        4.9245747705
  C         2.4807758633        0.6719873914        4.0008159296
  C         2.1654035369        1.8659400682        3.2118509718
  O         1.0498942307        2.0873278798        2.6981815851
  C         3.2739287080        2.9117142652        2.8861804900
  F         4.4594341940        2.2905006274        2.7787654334
  F         3.3479785735        3.8941435130        3.8049349206
  F         2.9825216365        3.4695602917        1.6796414677
  H         1.9009887073       -1.0034427896        0.6324301199
  H         1.2565009943       -1.9994589369       -0.8018728855
  H         1.4044477038       -0.2103991937       -0.8464191697
  H         0.2020562282        2.3386145344       -0.8546773795
  H         1.3857172288        2.4582228950        0.1568016819
  H        -4.8905602623       -1.9935488769        3.9633070737
  H        -4.9543892900       -0.9212225306        2.5599414342
  H        -4.0597975112       -2.4235803095        2.4068371924
  H        -3.6732908198       -0.3609915953        5.5879332066
  H        -1.7042426380        0.7535678311        7.0535797011
  H        -0.8099084018        2.1216800386        6.2847427945
  H        -2.5347769959        2.2598263828        6.6541899320
  H        -3.0328622947       -0.1262537876       -1.8816249875
  H        -4.2253854360        1.1874195211       -2.2425546340
  H        -2.5109297615        1.4370118640       -2.5716540569
  H        -3.8982909795        3.5261290129       -0.7613836361
  H         1.5815229675       -1.2207442936        5.9483268689
  H         0.8881930952       -2.3499085411        4.7333290724
  H         2.6594681296       -2.1254247727        4.8844602905
  H         3.3934715105        0.6345690790        4.6027367925
      51
 i =        9, E =      -518.2875832851
  C         1.1640338146       -1.1079077887       -0.1864172693
  O        -0.1183856110       -0.8382635792        0.2492893137
 Dy        -0.6955536523        0.8376108000        1.8214624171
  O         0.5731634990        1.9454012310       -0.0517547431
  O        -2.0981422929       -0.7909211332        2.6961884875
  C        -3.0859060987       -0.8524306804        3.4973299792
  C        -4.3077096779       -1.6249991140        3.1300539010
  C        -3.0245658383       -0.0866614869        4.7691643320
  C        -2.0556786230        1.0215281928        4.9482484828
  O        -1.4506123276        1.4976808764        3.9352304821
  C        -1.7665771945        1.5545166608        6.3130544480
  O        -2.4678009509        0.7249254002        0.3805629649
  C        -2.9798206485        1.4880442737       -0.4995885754
  C        -3.2326162444        0.9619134595       -1.8675260354
  C        -3.2713219292        2.9005697111       -0.1368968325
  C        -2.7267236234        3.4326722505        1.1153453037
  O        -1.7024502526        2.9879069026        1.6578798655
  C        -3.4768695477        4.5973246515        1.8346647473
  F        -4.8010437061        4.3862747556        1.6389624038
  F        -3.1224845737        5.7713280911        1.2980175729
  F        -3.1749615830        4.5797418926        3.1446651615
  O         0.7281046144       -0.5694389673        2.9958035661
  C         1.5915912282       -0.5170038359        3.9274354983
  C         1.6959502976       -1.6151650728        4.9264375794
  C         2.4934757529        0.6693872646        4.0040953108
  C         2.1908317242        1.8861543968        3.2336056166
  O         1.0600710077        2.0671339785        2.6919615674
  C         3.2947734543        2.9412398873        2.8891489333
  F         4.4602048698        2.2619981099        2.8037180655
  F         3.3130309032        3.8659121756        3.8361975158
  F         2.9915177777        3.4722716587        1.6687230890
  H         1.9216470388       -1.0234253955        0.6209347806
  H         1.2520638862       -2.0136241521       -0.8077451814
  H         1.4139655692       -0.2350670599       -0.8633126618
  H         0.2233328642        2.3543776487       -0.8716623583
  H         1.3764178913        2.4882224455        0.1597274434
  H        -4.8978817190       -2.0006153796        3.9773636986
  H        -4.9506845473       -0.9176322005        2.5735998383
  H        -4.0603516907       -2.4273283753        2.4148592298
  H        -3.6870528856       -0.3607622198        5.5976006337
  H        -1.7101351116        0.7505057616        7.0607713559
  H        -0.8199274849        2.1139374796        6.2879479248
  H        -2.5489924114        2.2559312404        6.6580731954
  H        -3.0402389386       -0.1220747897       -1.8898590500
  H        -4.2380993878        1.1939305404       -2.2554960460
  H        -2.5256252800        1.4504875615       -2.5618887885