 DBCSR| Multiplication driver                                               XSMM
 DBCSR| Multrec recursion limit                                              512
 DBCSR| Multiplication stack size                                           1000
 DBCSR| Maximum elements for images                                    UNLIMITED
 DBCSR| Multiplicative factor virtual images                                   1
 DBCSR| Randmat seed                                                    12341313
 DBCSR| Multiplication size stacks                                             3
 DBCSR| Number of 3D layers                                               SINGLE
 DBCSR| Use MPI memory allocation                                              T
 DBCSR| Use RMA algorithm                                                      F
 DBCSR| Use Communication thread                                               T
 DBCSR| Communication thread load                                             87


  **** **** ******  **  PROGRAM STARTED AT               2023-04-08 18:26:01.573
 ***** ** ***  *** **   PROGRAM STARTED ON        node154.pri.kelvin2.alces.netw
 **    ****   ******    PROGRAM STARTED BY                              40265864
 ***** **    ** ** **   PROGRAM PROCESS ID                                 15845
  **** **  *******  **  PROGRAM STARTED IN /mnt/scratch2/users/40265864/MSc_ML_M
                                           M/ln_replacements/xyz/Dy_L18_L20_L20_
                                           MeO_O/geometry_optimisation_2/run-0

 CP2K| version string:                                          CP2K version 4.1
 CP2K| source code revision number:                                    svn:17462
 CP2K| cp2kflags: libint fftw3 libxc parallel mpi3 scalapack libxsmm libderiv_ma
 CP2K|            x_am1=5 libint_max_am=6
 CP2K| is freely available from                            https://www.cp2k.org/
 CP2K| Program compiled at                          Mon 24 Oct 18:14:20 BST 2022
 CP2K| Program compiled on                      login1.pri.kelvin2.alces.network
 CP2K| Program compiled for                                                local
 CP2K| Data directory path                      /users/40265864/source/cp2k/data
 CP2K| Input file name                                         geo-opt-relax.inp

 GLOBAL| Force Environment number                                              1
 GLOBAL| Basis set file name                                 ../BASIS_MOLOPT_UCL
 GLOBAL| Potential file name                                        ../POTENTIAL
 GLOBAL| MM Potential file name                                     MM_POTENTIAL
 GLOBAL| Coordinate file name                     ../../Dy_L18_L20_L20_MeO_O.xyz
 GLOBAL| Method name                                                        CP2K
 GLOBAL| Project name                                                 dy_complex
 GLOBAL| Preferred FFT library                                             FFTW3
 GLOBAL| Preferred diagonalization lib.                                       SL
 GLOBAL| Run type                                                        GEO_OPT
 GLOBAL| All-to-all communication in single precision                          F
 GLOBAL| FFTs using library dependent lengths                                  F
 GLOBAL| Global print level                                                  LOW
 GLOBAL| Total number of message passing processes                           121
 GLOBAL| Number of threads for this process                                    1
 GLOBAL| This output is from process                                           0
 GLOBAL| CPU model name :  AMD EPYC 7702 64-Core Processor

 MEMORY| system memory details [Kb]
 MEMORY|                        rank 0           min           max       average
 MEMORY| MemTotal            792056772     792056772     792056772     792056772
 MEMORY| MemFree             769191808     769191808     769191808     769191808
 MEMORY| Buffers                204124        204124        204124        204124
 MEMORY| Cached                3114544       3114544       3114544       3114544
 MEMORY| Slab                  4931184       4931184       4931184       4931184
 MEMORY| SReclaimable          3284856       3284856       3284856       3284856
 MEMORY| MemLikelyFree       775795332     775795332     775795332     775795332


 GENERATE|  Preliminary Number of Bonds generated:                             0
 GENERATE|  Achieved consistency in connectivity generation.

 *******************************************************************************
 *******************************************************************************
 **                                                                           **
 **     #####                         ##              ##                      **
 **    ##   ##            ##          ##              ##                      **
 **   ##     ##                       ##            ######                    **
 **   ##     ##  ##   ##  ##   #####  ##  ##   ####   ##    #####    #####    **
 **   ##     ##  ##   ##  ##  ##      ## ##   ##      ##   ##   ##  ##   ##   **
 **   ##  ## ##  ##   ##  ##  ##      ####     ###    ##   ######   ######    **
 **    ##  ###   ##   ##  ##  ##      ## ##      ##   ##   ##       ##        **
 **     #######   #####   ##   #####  ##  ##  ####    ##    #####   ##        **
 **           ##                                                    ##        **
 **                                                                           **
 **                                                ... make the atoms dance   **
 **                                                                           **
 **            Copyright (C) by CP2K developers group (2000 - 2016)           **
 **                                                                           **
 *******************************************************************************


 SCF PARAMETERS         Density guess:                                   RESTART
                        --------------------------------------------------------
                        max_scf:                                             200
                        max_scf_history:                                       0
                        max_diis:                                              4
                        --------------------------------------------------------
                        eps_scf:                                        5.00E-05
                        eps_scf_history:                                0.00E+00
                        eps_diis:                                       1.00E-01
                        eps_eigval:                                     1.00E-05
                        --------------------------------------------------------
                        level_shift [a.u.]:                                 0.00
                        --------------------------------------------------------
                        No outer SCF

 *******************************************************************************
 ***                     STARTING GEOMETRY OPTIMIZATION                      ***
 ***                                   BFGS                                  ***
 *******************************************************************************

 Spin 1

 Number of electrons:                                                         96
 Number of occupied orbitals:                                                 96
 Number of molecular orbitals:                                                96

 Spin 2

 Number of electrons:                                                         95
 Number of occupied orbitals:                                                 95
 Number of molecular orbitals:                                                95

 Number of orbital functions:                                                532
 Number of independent orbital functions:                                    532

 Extrapolation method: initial_guess

 *** WARNING in qs_initial_guess.F:262 :: User requested to restart the   ***
 *** wavefunction from the file named: dy_complex-RESTART.wfn. This file  ***
 *** does not exist. Please check the existence of the file or change     ***
 *** properly the value of the keyword WFN_RESTART_FILE_NAME. Calculation ***
 *** continues using ATOMIC GUESS.                                        ***



 SCF WAVEFUNCTION OPTIMIZATION

  ----------------------------------- OT ---------------------------------------
  Minimizer      : DIIS                : direct inversion
                                         in the iterative subspace
                                         using   7 DIIS vectors
                                         safer DIIS on
  Preconditioner : FULL_SINGLE_INVERSE : inversion of 
                                         H + eS - 2*(Sc)(c^T*H*c+const)(Sc)^T
  Precond_solver : DEFAULT
  stepsize       :    0.08000000                  energy_gap     :    0.08000000
  eps_taylor     :   0.10000E-15                  max_taylor     :             4
  ----------------------------------- OT ---------------------------------------

  Step     Update method      Time    Convergence         Total energy    Change
  ------------------------------------------------------------------------------
     1 OT DIIS     0.80E-01    6.3     0.02855208      -502.2544852764 -5.02E+02
     2 OT DIIS     0.80E-01    6.9     0.01843981      -506.9037391510 -4.65E+00
     3 OT DIIS     0.80E-01    3.9     0.01512942      -509.1817391049 -2.28E+00
     4 OT DIIS     0.80E-01    3.8     0.01079721      -512.7369511683 -3.56E+00
     5 OT DIIS     0.80E-01    3.8     0.00865810      -513.9796487222 -1.24E+00
     6 OT DIIS     0.80E-01    3.8     0.00573484      -515.3467607047 -1.37E+00
     7 OT DIIS     0.80E-01    3.8     0.00431778      -515.9526333091 -6.06E-01
     8 OT DIIS     0.80E-01    3.8     0.00311876      -516.4768588977 -5.24E-01
     9 OT DIIS     0.80E-01    3.8     0.00244317      -516.6269778688 -1.50E-01
    10 OT DIIS     0.80E-01    3.8     0.00198621      -516.7966771983 -1.70E-01
    11 OT DIIS     0.80E-01    3.8     0.00157284      -516.9234756531 -1.27E-01
    12 OT DIIS     0.80E-01    3.8     0.00139614      -516.9865472480 -6.31E-02
    13 OT DIIS     0.80E-01    3.8     0.00116337      -517.0556741154 -6.91E-02
    14 OT DIIS     0.80E-01    3.8     0.00102281      -517.1089882662 -5.33E-02
    15 OT DIIS     0.80E-01    3.8     0.00091022      -517.1541322490 -4.51E-02
    16 OT DIIS     0.80E-01    3.8     0.00085311      -517.1855167701 -3.14E-02
    17 OT DIIS     0.80E-01    3.8     0.00082800      -517.2086052901 -2.31E-02
    18 OT DIIS     0.80E-01    3.8     0.00080937      -517.2306194519 -2.20E-02
    19 OT DIIS     0.80E-01    3.8     0.00080675      -517.2483692792 -1.77E-02
    20 OT DIIS     0.80E-01    3.8     0.00079801      -517.2500557365 -1.69E-03
    21 OT DIIS     0.80E-01    3.8     0.00079301      -517.2585559726 -8.50E-03
    22 OT DIIS     0.80E-01    3.8     0.00078781      -517.2593152847 -7.59E-04
    23 OT SD       0.80E-01    3.8     0.00078906      -517.2619923885 -2.68E-03
    24 OT DIIS     0.80E-01    3.8     0.00078954      -517.2670544345 -5.06E-03
    25 OT SD       0.80E-01    3.8     0.00079091      -517.2680726467 -1.02E-03
    26 OT SD       0.80E-01    3.8     0.00079074      -517.2731550158 -5.08E-03
    27 OT SD       0.80E-01    3.8     0.00079174      -517.2782403878 -5.09E-03
    28 OT SD       0.80E-01    3.8     0.00079312      -517.2833400982 -5.10E-03
    29 OT SD       0.80E-01    3.8     0.00079468      -517.2884582965 -5.12E-03
    30 OT SD       0.80E-01   10.3     0.00079629      -517.2935968225 -5.14E-03
    31 OT SD       0.80E-01   13.6     0.00079792      -517.2987563428 -5.16E-03
    32 OT SD       0.80E-01   12.4     0.00079950      -517.3039367895 -5.18E-03
    33 OT SD       0.80E-01    3.8     0.00080101      -517.3091375777 -5.20E-03
    34 OT SD       0.80E-01    3.8     0.00080243      -517.3143577403 -5.22E-03
    35 OT SD       0.80E-01    3.8     0.00080373      -517.3195960278 -5.24E-03
    36 OT SD       0.80E-01    3.8     0.00080492      -517.3248509938 -5.25E-03
    37 OT SD       0.80E-01    3.8     0.00080598      -517.3301210708 -5.27E-03
    38 OT SD       0.80E-01    3.8     0.00080692      -517.3354046420 -5.28E-03
    39 OT SD       0.80E-01    3.8     0.00080774      -517.3407001070 -5.30E-03
    40 OT SD       0.80E-01    3.8     0.00080845      -517.3460059440 -5.31E-03
    41 OT SD       0.80E-01    3.8     0.00080906      -517.3513207665 -5.31E-03
    42 OT SD       0.80E-01    3.8     0.00080959      -517.3566433728 -5.32E-03
    43 OT SD       0.80E-01    3.8     0.00081007      -517.3619727893 -5.33E-03
    44 OT SD       0.80E-01    3.8     0.00081050      -517.3673083038 -5.34E-03
    45 OT SD       0.80E-01    3.8     0.00081092      -517.3726494925 -5.34E-03
    46 OT SD       0.80E-01    3.8     0.00081135      -517.3779962358 -5.35E-03
    47 OT SD       0.80E-01    3.8     0.00081181      -517.3833487239 -5.35E-03
    48 OT SD       0.80E-01    3.8     0.00081233      -517.3887074507 -5.36E-03
    49 OT SD       0.80E-01    3.8     0.00081291      -517.3940732006 -5.37E-03
    50 OT SD       0.80E-01    3.8     0.00081360      -517.3994470259 -5.37E-03
    51 OT SD       0.80E-01    3.8     0.00081439      -517.4048302119 -5.38E-03
    52 OT SD       0.80E-01    3.8     0.00081529      -517.4102242403 -5.39E-03
    53 OT SD       0.80E-01    3.8     0.00081633      -517.4156307408 -5.41E-03
    54 OT SD       0.80E-01    3.8     0.00081750      -517.4210514456 -5.42E-03
    55 OT SD       0.80E-01    3.8     0.00081880      -517.4264881358 -5.44E-03
    56 OT SD       0.80E-01    3.8     0.00082024      -517.4319425895 -5.45E-03
    57 OT SD       0.80E-01    3.8     0.00082179      -517.4374165296 -5.47E-03
    58 OT SD       0.80E-01    3.8     0.00082345      -517.4429115710 -5.50E-03
    59 OT SD       0.80E-01    3.8     0.00082520      -517.4484291702 -5.52E-03
    60 OT DIIS     0.80E-01    3.8     0.00082704      -517.4539705798 -5.54E-03
    61 OT SD       0.80E-01    3.8     0.00125198      -517.4433379310  1.06E-02
    62 OT SD       0.80E-01    3.8     0.00118517      -517.4556571922 -1.23E-02
    63 OT SD       0.80E-01    3.8     0.00115371      -517.4669046302 -1.12E-02
    64 OT SD       0.80E-01    3.8     0.00113282      -517.4776182853 -1.07E-02
    65 OT SD       0.80E-01    3.8     0.00111678      -517.4879714806 -1.04E-02
    66 OT SD       0.80E-01    3.8     0.00110328      -517.4980456861 -1.01E-02
    67 OT DIIS     0.80E-01    3.8     0.00109119      -517.5078843891 -9.84E-03
    68 OT DIIS     0.80E-01    3.8     0.00083074      -517.6813226562 -1.73E-01
    69 OT SD       0.80E-01    3.8     0.00061334      -517.7328648787 -5.15E-02
    70 OT SD       0.80E-01    3.8     0.00058119      -517.7358345492 -2.97E-03
    71 OT DIIS     0.80E-01    3.8     0.00055876      -517.7385242508 -2.69E-03
    72 OT SD       0.80E-01    3.8     0.00069063      -517.7434405201 -4.92E-03
    73 OT DIIS     0.80E-01    3.8     0.00061780      -517.7470864986 -3.65E-03
    74 OT DIIS     0.80E-01    3.8     0.00038571      -517.7709189685 -2.38E-02
    75 OT DIIS     0.80E-01    3.8     0.00038402      -517.7718095064 -8.91E-04
    76 OT DIIS     0.80E-01    3.9     0.00030259      -517.7840611279 -1.23E-02
    77 OT DIIS     0.80E-01    3.8     0.00026745      -517.7887378186 -4.68E-03
    78 OT DIIS     0.80E-01    3.8     0.00024604      -517.7924039323 -3.67E-03
    79 OT DIIS     0.80E-01    3.8     0.00022520      -517.7965617971 -4.16E-03
    80 OT DIIS     0.80E-01    3.8     0.00021480      -517.7986958547 -2.13E-03
    81 OT DIIS     0.80E-01    3.8     0.00020107      -517.8023486264 -3.65E-03
    82 OT DIIS     0.80E-01    3.8     0.00019265      -517.8039103845 -1.56E-03
    83 OT DIIS     0.80E-01    3.8     0.00017031      -517.8084150232 -4.50E-03
    84 OT DIIS     0.80E-01    4.3     0.00015761      -517.8112265018 -2.81E-03
    85 OT DIIS     0.80E-01    3.8     0.00014948      -517.8127901461 -1.56E-03
    86 OT DIIS     0.80E-01    3.8     0.00013889      -517.8150433165 -2.25E-03
    87 OT DIIS     0.80E-01    3.8     0.00013010      -517.8169005637 -1.86E-03
    88 OT DIIS     0.80E-01    3.8     0.00012363      -517.8182840023 -1.38E-03
    89 OT DIIS     0.80E-01    3.9     0.00011625      -517.8198411737 -1.56E-03
    90 OT DIIS     0.80E-01    3.8     0.00011220      -517.8207541863 -9.13E-04
    91 OT DIIS     0.80E-01    3.8     0.00010889      -517.8215026117 -7.48E-04
    92 OT DIIS     0.80E-01    3.8     0.00010357      -517.8225301196 -1.03E-03
    93 OT DIIS     0.80E-01    3.8     0.00009772      -517.8239152277 -1.39E-03
    94 OT DIIS     0.80E-01    3.8     0.00009279      -517.8249075320 -9.92E-04
    95 OT DIIS     0.80E-01    3.8     0.00008810      -517.8263445624 -1.44E-03
    96 OT DIIS     0.80E-01    3.8     0.00008362      -517.8268327991 -4.88E-04
    97 OT DIIS     0.80E-01    3.8     0.00007980      -517.8278643226 -1.03E-03
    98 OT DIIS     0.80E-01    3.9     0.00007607      -517.8284999604 -6.36E-04
    99 OT DIIS     0.80E-01    3.8     0.00007287      -517.8291204050 -6.20E-04
   100 OT DIIS     0.80E-01    3.8     0.00006919      -517.8297858521 -6.65E-04
   101 OT DIIS     0.80E-01    3.8     0.00006672      -517.8302667251 -4.81E-04
   102 OT DIIS     0.80E-01    3.8     0.00006359      -517.8307764592 -5.10E-04
   103 OT DIIS     0.80E-01    3.8     0.00006096      -517.8314172502 -6.41E-04
   104 OT DIIS     0.80E-01    3.8     0.00005765      -517.8318081377 -3.91E-04
   105 OT DIIS     0.80E-01    3.8     0.00005511      -517.8323528679 -5.45E-04
   106 OT DIIS     0.80E-01    3.8     0.00005345      -517.8325990866 -2.46E-04
   107 OT DIIS     0.80E-01    3.8     0.00005092      -517.8329644919 -3.65E-04
   108 OT DIIS     0.80E-01    3.8     0.00004975      -517.8331614731 -1.97E-04

  *** SCF run converged in   108 steps ***


  Electronic density on regular grids:       -190.9999999950        0.0000000050
  Core density on regular grids:              193.9999999907       -0.0000000093
  Total charge density on r-space grids:        2.9999999957
  Total charge density g-space grids:           2.9999999957

  Overlap energy of the core charge distribution:               0.00000576685054
  Self energy of the core charge distribution:              -1180.77596130715415
  Core Hamiltonian energy:                                    347.66070807786826
  Hartree energy:                                             419.44336704638596
  Exchange-correlation energy:                               -104.16128105702586

  Total energy:                                              -517.83316147307528

  Integrated absolute spin density  :                               9.7842991717
  Ideal and single determinant S**2 :                    0.750000       4.946799

 ENERGY| Total FORCE_EVAL ( QS ) energy (a.u.):             -517.833387613806508


 --------  Informations at step =     0 ------------
  Optimization Method        =                 BFGS
  Total Energy               =      -517.8333876138
  Used time                  =              451.237
 ---------------------------------------------------

 --------------------------
 OPTIMIZATION STEP:      1
 --------------------------

  Step is scaled; Scaling factor =  0.75890

 Spin 1

 Number of electrons:                                                         96
 Number of occupied orbitals:                                                 96
 Number of molecular orbitals:                                                96

 Spin 2

 Number of electrons:                                                         95
 Number of occupied orbitals:                                                 95
 Number of molecular orbitals:                                                95

 Number of orbital functions:                                                532
 Number of independent orbital functions:                                    532

 Extrapolation method: ASPC


 SCF WAVEFUNCTION OPTIMIZATION

  ----------------------------------- OT ---------------------------------------
  Minimizer      : DIIS                : direct inversion
                                         in the iterative subspace
                                         using   7 DIIS vectors
                                         safer DIIS on
  Preconditioner : FULL_SINGLE_INVERSE : inversion of 
                                         H + eS - 2*(Sc)(c^T*H*c+const)(Sc)^T
  Precond_solver : DEFAULT
  stepsize       :    0.08000000                  energy_gap     :    0.08000000
  eps_taylor     :   0.10000E-15                  max_taylor     :             4
  ----------------------------------- OT ---------------------------------------

  Step     Update method      Time    Convergence         Total energy    Change
  ------------------------------------------------------------------------------
     1 OT DIIS     0.80E-01    3.0     0.00515810      -517.6120571379 -5.18E+02
     2 OT DIIS     0.80E-01   11.1     0.00365425      -517.7858539566 -1.74E-01
     3 OT DIIS     0.80E-01   10.3     0.00268516      -517.9038495405 -1.18E-01
     4 OT DIIS     0.80E-01   10.3     0.00178188      -517.9952941710 -9.14E-02
     5 OT DIIS     0.80E-01   10.4     0.00164315      -518.0160906054 -2.08E-02
     6 OT DIIS     0.80E-01    4.2     0.00078278      -518.0297129948 -1.36E-02
     7 OT DIIS     0.80E-01    3.8     0.00055667      -518.0343928560 -4.68E-03
     8 OT DIIS     0.80E-01    3.9     0.00043976      -518.0366814164 -2.29E-03
     9 OT DIIS     0.80E-01    3.9     0.00030585      -518.0378345094 -1.15E-03
    10 OT DIIS     0.80E-01    3.8     0.00023519      -518.0388984052 -1.06E-03
    11 OT DIIS     0.80E-01    3.9     0.00020434      -518.0395405506 -6.42E-04
    12 OT DIIS     0.80E-01    3.8     0.00018145      -518.0400259868 -4.85E-04
    13 OT DIIS     0.80E-01    3.8     0.00016274      -518.0404240411 -3.98E-04
    14 OT DIIS     0.80E-01    3.8     0.00015383      -518.0407659775 -3.42E-04
    15 OT DIIS     0.80E-01    3.8     0.00013842      -518.0410968614 -3.31E-04
    16 OT DIIS     0.80E-01    3.8     0.00012862      -518.0413962313 -2.99E-04
    17 OT DIIS     0.80E-01    3.8     0.00011632      -518.0417447993 -3.49E-04
    18 OT DIIS     0.80E-01    3.8     0.00010914      -518.0420008978 -2.56E-04
    19 OT DIIS     0.80E-01   10.6     0.00009963      -518.0422600964 -2.59E-04
    20 OT DIIS     0.80E-01   10.7     0.00009589      -518.0424615615 -2.01E-04
    21 OT DIIS     0.80E-01   10.6     0.00009215      -518.0426154985 -1.54E-04
    22 OT DIIS     0.80E-01    4.2     0.00009016      -518.0427703710 -1.55E-04
    23 OT DIIS     0.80E-01    3.8     0.00008814      -518.0428772017 -1.07E-04
    24 OT DIIS     0.80E-01    3.8     0.00008650      -518.0430047138 -1.28E-04
    25 OT DIIS     0.80E-01    3.8     0.00008437      -518.0431291967 -1.24E-04
    26 OT DIIS     0.80E-01    3.8     0.00008368      -518.0432736689 -1.44E-04
    27 OT DIIS     0.80E-01    3.8     0.00008215      -518.0434299037 -1.56E-04
    28 OT DIIS     0.80E-01    3.8     0.00008130      -518.0436145767 -1.85E-04
    29 OT DIIS     0.80E-01    3.8     0.00008031      -518.0438284026 -2.14E-04
    30 OT DIIS     0.80E-01    4.1     0.00007942      -518.0440816088 -2.53E-04
    31 OT DIIS     0.80E-01    3.9     0.00007855      -518.0443364348 -2.55E-04
    32 OT DIIS     0.80E-01    3.9     0.00007731      -518.0446587211 -3.22E-04
    33 OT DIIS     0.80E-01    3.9     0.00007401      -518.0449413322 -2.83E-04
    34 OT DIIS     0.80E-01    3.8     0.00007197      -518.0452318121 -2.90E-04
    35 OT DIIS     0.80E-01    3.8     0.00006864      -518.0454560718 -2.24E-04
    36 OT DIIS     0.80E-01    3.8     0.00006639      -518.0456608106 -2.05E-04
    37 OT DIIS     0.80E-01    3.9     0.00006381      -518.0458624667 -2.02E-04
    38 OT DIIS     0.80E-01   10.2     0.00006298      -518.0460784432 -2.16E-04
    39 OT DIIS     0.80E-01    4.2     0.00005975      -518.0462353982 -1.57E-04
    40 OT DIIS     0.80E-01    3.8     0.00005702      -518.0463693780 -1.34E-04
    41 OT DIIS     0.80E-01    3.8     0.00005348      -518.0464619262 -9.25E-05
    42 OT DIIS     0.80E-01    3.8     0.00005125      -518.0465703374 -1.08E-04
    43 OT DIIS     0.80E-01    4.6     0.00004847      -518.0466874615 -1.17E-04

  *** SCF run converged in    43 steps ***


  Electronic density on regular grids:       -190.9999999951        0.0000000049
  Core density on regular grids:              193.9999999907       -0.0000000093
  Total charge density on r-space grids:        2.9999999955
  Total charge density g-space grids:           2.9999999955

  Overlap energy of the core charge distribution:               0.00000523935968
  Self energy of the core charge distribution:              -1180.77596130715415
  Core Hamiltonian energy:                                    348.44783487952179
  Hartree energy:                                             418.71369356504295
  Exchange-correlation energy:                               -104.43225983823937

  Total energy:                                              -518.04668746146899

  Integrated absolute spin density  :                               9.5767462611
  Ideal and single determinant S**2 :                    0.750000       4.845507

 ENERGY| Total FORCE_EVAL ( QS ) energy (a.u.):             -518.046797716978858


 --------  Informations at step =     1 ------------
  Optimization Method        =                 BFGS
  Total Energy               =      -518.0467977170
  Real energy change         =        -0.2134101032
  Predicted change in energy =        -0.3247385499
  Scaling factor             =         0.7588957266
  Step size                  =         0.5669178399
  Trust radius               =         0.5669178399
  Decrease in energy         =                  YES
  Used time                  =              226.021

  Convergence check :
  Max. step size             =         0.5669178399
  Conv. limit for step size  =         0.1000000000
  Convergence in step size   =                   NO
  RMS step size              =         0.1331313387
  Conv. limit for RMS step   =         0.0100000000
  Convergence in RMS step    =                   NO
  Max. gradient              =         0.1268198448
  Conv. limit for gradients  =         0.1000000000
  Conv. for gradients        =                   NO
  RMS gradient               =         0.0332240400
  Conv. limit for RMS grad.  =         0.0100000000
  Conv. for gradients        =                   NO
 ---------------------------------------------------

 --------------------------
 OPTIMIZATION STEP:      2
 --------------------------

 Spin 1

 Number of electrons:                                                         96
 Number of occupied orbitals:                                                 96
 Number of molecular orbitals:                                                96

 Spin 2

 Number of electrons:                                                         95
 Number of occupied orbitals:                                                 95
 Number of molecular orbitals:                                                95

 Number of orbital functions:                                                532
 Number of independent orbital functions:                                    532

 Extrapolation method: ASPC


 SCF WAVEFUNCTION OPTIMIZATION

  ----------------------------------- OT ---------------------------------------
  Minimizer      : DIIS                : direct inversion
                                         in the iterative subspace
                                         using   7 DIIS vectors
                                         safer DIIS on
  Preconditioner : FULL_SINGLE_INVERSE : inversion of 
                                         H + eS - 2*(Sc)(c^T*H*c+const)(Sc)^T
  Precond_solver : DEFAULT
  stepsize       :    0.08000000                  energy_gap     :    0.08000000
  eps_taylor     :   0.10000E-15                  max_taylor     :             4
  ----------------------------------- OT ---------------------------------------

  Step     Update method      Time    Convergence         Total energy    Change
  ------------------------------------------------------------------------------
     1 OT DIIS     0.80E-01    2.8     0.00597985      -517.6130948155 -5.18E+02
     2 OT DIIS     0.80E-01    3.9     0.00416687      -517.8501231822 -2.37E-01
     3 OT DIIS     0.80E-01    3.9     0.00270354      -518.0385053959 -1.88E-01
     4 OT DIIS     0.80E-01    3.9     0.00155294      -518.1525544804 -1.14E-01
     5 OT DIIS     0.80E-01    3.9     0.00148974      -518.1724129097 -1.99E-02
     6 OT DIIS     0.80E-01    3.9     0.00083734      -518.1813500449 -8.94E-03
     7 OT DIIS     0.80E-01    3.9     0.00052866      -518.1874994456 -6.15E-03
     8 OT DIIS     0.80E-01    3.9     0.00040311      -518.1889406987 -1.44E-03
     9 OT DIIS     0.80E-01    3.9     0.00024892      -518.1900112457 -1.07E-03
    10 OT DIIS     0.80E-01    3.9     0.00019708      -518.1905317905 -5.21E-04
    11 OT DIIS     0.80E-01    3.9     0.00015536      -518.1910271024 -4.95E-04
    12 OT DIIS     0.80E-01    3.9     0.00013771      -518.1912631376 -2.36E-04
    13 OT DIIS     0.80E-01    3.9     0.00012038      -518.1914460543 -1.83E-04
    14 OT DIIS     0.80E-01    3.9     0.00010801      -518.1916297981 -1.84E-04
    15 OT DIIS     0.80E-01    4.0     0.00010664      -518.1918118374 -1.82E-04
    16 OT DIIS     0.80E-01    4.0     0.00008909      -518.1919659242 -1.54E-04
    17 OT DIIS     0.80E-01    3.9     0.00008583      -518.1921065647 -1.41E-04
    18 OT DIIS     0.80E-01    3.9     0.00007429      -518.1922271829 -1.21E-04
    19 OT DIIS     0.80E-01    3.9     0.00006615      -518.1923628901 -1.36E-04
    20 OT DIIS     0.80E-01    4.0     0.00006235      -518.1924789065 -1.16E-04
    21 OT DIIS     0.80E-01    3.9     0.00005895      -518.1925546085 -7.57E-05
    22 OT DIIS     0.80E-01    3.9     0.00005512      -518.1926241927 -6.96E-05
    23 OT DIIS     0.80E-01    4.0     0.00005235      -518.1926978404 -7.36E-05
    24 OT DIIS     0.80E-01    3.9     0.00005248      -518.1927430280 -4.52E-05
    25 OT DIIS     0.80E-01    3.8     0.00004675      -518.1928157126 -7.27E-05

  *** SCF run converged in    25 steps ***


  Electronic density on regular grids:       -190.9999999953        0.0000000047
  Core density on regular grids:              193.9999999907       -0.0000000093
  Total charge density on r-space grids:        2.9999999953
  Total charge density g-space grids:           2.9999999953

  Overlap energy of the core charge distribution:               0.00000537325406
  Self energy of the core charge distribution:              -1180.77596130715415
  Core Hamiltonian energy:                                    350.42057760793512
  Hartree energy:                                             417.11360114375128
  Exchange-correlation energy:                               -104.95103853036619

  Total energy:                                              -518.19281571257989

  Integrated absolute spin density  :                               9.4889529507
  Ideal and single determinant S**2 :                    0.750000       4.790816

 ENERGY| Total FORCE_EVAL ( QS ) energy (a.u.):             -518.192860257297639


 --------  Informations at step =     2 ------------
  Optimization Method        =                 BFGS
  Total Energy               =      -518.1928602573
  Real energy change         =        -0.1460625403
  Predicted change in energy =        -0.1579550750
  Scaling factor             =         0.7588957266
  Step size                  =         0.2690775984
  Trust radius               =         0.5669178399
  Decrease in energy         =                  YES
  Used time                  =              105.539

  Convergence check :
  Max. step size             =         0.2690775984
  Conv. limit for step size  =         0.1000000000
  Convergence in step size   =                   NO
  RMS step size              =         0.0926802121
  Conv. limit for RMS step   =         0.0100000000
  Convergence in RMS step    =                   NO
  Max. gradient              =         0.0460291463
  Conv. limit for gradients  =         0.1000000000
  Conv. in gradients         =                  YES
  RMS gradient               =         0.0127192514
  Conv. limit for RMS grad.  =         0.0100000000
  Conv. for gradients        =                   NO
 ---------------------------------------------------

 --------------------------
 OPTIMIZATION STEP:      3
 --------------------------

 Spin 1

 Number of electrons:                                                         96
 Number of occupied orbitals:                                                 96
 Number of molecular orbitals:                                                96

 Spin 2

 Number of electrons:                                                         95
 Number of occupied orbitals:                                                 95
 Number of molecular orbitals:                                                95

 Number of orbital functions:                                                532
 Number of independent orbital functions:                                    532

 Extrapolation method: ASPC


 SCF WAVEFUNCTION OPTIMIZATION

  ----------------------------------- OT ---------------------------------------
  Minimizer      : DIIS                : direct inversion
                                         in the iterative subspace
                                         using   7 DIIS vectors
                                         safer DIIS on
  Preconditioner : FULL_SINGLE_INVERSE : inversion of 
                                         H + eS - 2*(Sc)(c^T*H*c+const)(Sc)^T
  Precond_solver : DEFAULT
  stepsize       :    0.08000000                  energy_gap     :    0.08000000
  eps_taylor     :   0.10000E-15                  max_taylor     :             4
  ----------------------------------- OT ---------------------------------------

  Step     Update method      Time    Convergence         Total energy    Change
  ------------------------------------------------------------------------------
     1 OT DIIS     0.80E-01   15.1     0.00577188      -517.6432394726 -5.18E+02
     2 OT DIIS     0.80E-01    3.8     0.00418676      -517.8721417812 -2.29E-01
     3 OT DIIS     0.80E-01    3.8     0.00240893      -518.1018018178 -2.30E-01
     4 OT DIIS     0.80E-01    4.0     0.00161022      -518.1865083373 -8.47E-02
     5 OT DIIS     0.80E-01    3.9     0.00157521      -518.2072747299 -2.08E-02
     6 OT DIIS     0.80E-01    3.9     0.00086590      -518.2174448489 -1.02E-02
     7 OT DIIS     0.80E-01    3.9     0.00044589      -518.2236351929 -6.19E-03
     8 OT DIIS     0.80E-01    3.8     0.00032603      -518.2256955034 -2.06E-03
     9 OT DIIS     0.80E-01    3.8     0.00021079      -518.2269595946 -1.26E-03
    10 OT DIIS     0.80E-01    4.0     0.00016347      -518.2275374300 -5.78E-04
    11 OT DIIS     0.80E-01    3.8     0.00013532      -518.2278546164 -3.17E-04
    12 OT DIIS     0.80E-01    3.8     0.00011247      -518.2281533421 -2.99E-04
    13 OT DIIS     0.80E-01    3.8     0.00010500      -518.2283550956 -2.02E-04
    14 OT DIIS     0.80E-01    3.8     0.00010010      -518.2284749662 -1.20E-04
    15 OT DIIS     0.80E-01    3.8     0.00007724      -518.2286083288 -1.33E-04
    16 OT DIIS     0.80E-01    3.8     0.00006491      -518.2287443432 -1.36E-04
    17 OT DIIS     0.80E-01    3.8     0.00005486      -518.2288287264 -8.44E-05
    18 OT DIIS     0.80E-01    4.0     0.00004593      -518.2288998903 -7.12E-05

  *** SCF run converged in    18 steps ***


  Electronic density on regular grids:       -190.9999999953        0.0000000047
  Core density on regular grids:              193.9999999907       -0.0000000093
  Total charge density on r-space grids:        2.9999999954
  Total charge density g-space grids:           2.9999999954

  Overlap energy of the core charge distribution:               0.00000517766121
  Self energy of the core charge distribution:              -1180.77596130715415
  Core Hamiltonian energy:                                    350.80305603199929
  Hartree energy:                                             416.79076112143480
  Exchange-correlation energy:                               -105.04676091419634

  Total energy:                                              -518.22889989025509

  Integrated absolute spin density  :                               9.4444278436
  Ideal and single determinant S**2 :                    0.750000       4.785094

 ENERGY| Total FORCE_EVAL ( QS ) energy (a.u.):             -518.228945613028372


 --------  Informations at step =     3 ------------
  Optimization Method        =                 BFGS
  Total Energy               =      -518.2289456130
  Real energy change         =        -0.0360853557
  Predicted change in energy =        -0.0443962655
  Scaling factor             =         0.7588957266
  Step size                  =         0.1809204022
  Trust radius               =         0.5669178399
  Decrease in energy         =                  YES
  Used time                  =               89.050

  Convergence check :
  Max. step size             =         0.1809204022
  Conv. limit for step size  =         0.1000000000
  Convergence in step size   =                   NO
  RMS step size              =         0.0665690074
  Conv. limit for RMS step   =         0.0100000000
  Convergence in RMS step    =                   NO
  Max. gradient              =         0.0366783819
  Conv. limit for gradients  =         0.1000000000
  Conv. in gradients         =                  YES
  RMS gradient               =         0.0102485591
  Conv. limit for RMS grad.  =         0.0100000000
  Conv. for gradients        =                   NO
 ---------------------------------------------------

 --------------------------
 OPTIMIZATION STEP:      4
 --------------------------

 Spin 1

 Number of electrons:                                                         96
 Number of occupied orbitals:                                                 96
 Number of molecular orbitals:                                                96

 Spin 2

 Number of electrons:                                                         95
 Number of occupied orbitals:                                                 95
 Number of molecular orbitals:                                                95

 Number of orbital functions:                                                532
 Number of independent orbital functions:                                    532

 Extrapolation method: ASPC


 SCF WAVEFUNCTION OPTIMIZATION

  ----------------------------------- OT ---------------------------------------
  Minimizer      : DIIS                : direct inversion
                                         in the iterative subspace
                                         using   7 DIIS vectors
                                         safer DIIS on
  Preconditioner : FULL_SINGLE_INVERSE : inversion of 
                                         H + eS - 2*(Sc)(c^T*H*c+const)(Sc)^T
  Precond_solver : DEFAULT
  stepsize       :    0.08000000                  energy_gap     :    0.08000000
  eps_taylor     :   0.10000E-15                  max_taylor     :             4
  ----------------------------------- OT ---------------------------------------

  Step     Update method      Time    Convergence         Total energy    Change
  ------------------------------------------------------------------------------
     1 OT DIIS     0.80E-01    2.8     0.00468034      -517.8889106565 -5.18E+02
     2 OT DIIS     0.80E-01    3.8     0.00337022      -518.0359362425 -1.47E-01
     3 OT DIIS     0.80E-01    3.9     0.00232600      -518.1538628370 -1.18E-01
     4 OT DIIS     0.80E-01    3.8     0.00164574      -518.2228600947 -6.90E-02
     5 OT DIIS     0.80E-01    3.8     0.00106807      -518.2383800584 -1.55E-02
     6 OT DIIS     0.80E-01    3.8     0.00068020      -518.2476438903 -9.26E-03
     7 OT DIIS     0.80E-01    4.5     0.00051036      -518.2500809318 -2.44E-03
     8 OT DIIS     0.80E-01    3.9     0.00030007      -518.2516551392 -1.57E-03
     9 OT DIIS     0.80E-01    3.9     0.00024527      -518.2522599173 -6.05E-04
    10 OT DIIS     0.80E-01   13.9     0.00017542      -518.2526402998 -3.80E-04
    11 OT DIIS     0.80E-01    4.5     0.00014465      -518.2528605696 -2.20E-04
    12 OT DIIS     0.80E-01    3.8     0.00009984      -518.2529904907 -1.30E-04
    13 OT DIIS     0.80E-01    3.8     0.00008718      -518.2530870068 -9.65E-05
    14 OT DIIS     0.80E-01    3.8     0.00007700      -518.2531413367 -5.43E-05
    15 OT DIIS     0.80E-01    3.8     0.00006930      -518.2532024633 -6.11E-05
    16 OT DIIS     0.80E-01    3.8     0.00006003      -518.2532464566 -4.40E-05
    17 OT DIIS     0.80E-01    3.8     0.00005346      -518.2532903314 -4.39E-05
    18 OT DIIS     0.80E-01    3.8     0.00004813      -518.2533238370 -3.35E-05

  *** SCF run converged in    18 steps ***


  Electronic density on regular grids:       -190.9999999952        0.0000000048
  Core density on regular grids:              193.9999999907       -0.0000000093
  Total charge density on r-space grids:        2.9999999955
  Total charge density g-space grids:           2.9999999955

  Overlap energy of the core charge distribution:               0.00000444429609
  Self energy of the core charge distribution:              -1180.77596130715415
  Core Hamiltonian energy:                                    350.10816570092641
  Hartree energy:                                             417.28227595468229
  Exchange-correlation energy:                               -104.86780862970407

  Total energy:                                              -518.25332383695343

  Integrated absolute spin density  :                               9.4533000335
  Ideal and single determinant S**2 :                    0.750000       4.785702

 ENERGY| Total FORCE_EVAL ( QS ) energy (a.u.):             -518.253352472558277


 --------  Informations at step =     4 ------------
  Optimization Method        =                 BFGS
  Total Energy               =      -518.2533524726
  Real energy change         =        -0.0244068595
  Predicted change in energy =        -0.0302283577
  Scaling factor             =         0.7588957266
  Step size                  =         0.2076532405
  Trust radius               =         0.5669178399
  Decrease in energy         =                  YES
  Used time                  =               84.974

  Convergence check :
  Max. step size             =         0.2076532405
  Conv. limit for step size  =         0.1000000000
  Convergence in step size   =                   NO
  RMS step size              =         0.0674863526
  Conv. limit for RMS step   =         0.0100000000
  Convergence in RMS step    =                   NO
  Max. gradient              =         0.0267533818
  Conv. limit for gradients  =         0.1000000000
  Conv. in gradients         =                  YES
  RMS gradient               =         0.0088754219
  Conv. limit for RMS grad.  =         0.0100000000
  Conv. in RMS gradients     =                  YES
 ---------------------------------------------------

 --------------------------
 OPTIMIZATION STEP:      5
 --------------------------

 Spin 1

 Number of electrons:                                                         96
 Number of occupied orbitals:                                                 96
 Number of molecular orbitals:                                                96

 Spin 2

 Number of electrons:                                                         95
 Number of occupied orbitals:                                                 95
 Number of molecular orbitals:                                                95

 Number of orbital functions:                                                532
 Number of independent orbital functions:                                    532

 Extrapolation method: ASPC


 SCF WAVEFUNCTION OPTIMIZATION

  ----------------------------------- OT ---------------------------------------
  Minimizer      : DIIS                : direct inversion
                                         in the iterative subspace
                                         using   7 DIIS vectors
                                         safer DIIS on
  Preconditioner : FULL_SINGLE_INVERSE : inversion of 
                                         H + eS - 2*(Sc)(c^T*H*c+const)(Sc)^T
  Precond_solver : DEFAULT
  stepsize       :    0.08000000                  energy_gap     :    0.08000000
  eps_taylor     :   0.10000E-15                  max_taylor     :             4
  ----------------------------------- OT ---------------------------------------

  Step     Update method      Time    Convergence         Total energy    Change
  ------------------------------------------------------------------------------
     1 OT DIIS     0.80E-01    2.9     0.00449485      -517.9333824421 -5.18E+02
     2 OT DIIS     0.80E-01    3.9     0.00315983      -518.0679282763 -1.35E-01
     3 OT DIIS     0.80E-01    3.9     0.00227459      -518.1749566181 -1.07E-01
     4 OT DIIS     0.80E-01    3.9     0.00238076      -518.2218547905 -4.69E-02
     5 OT DIIS     0.80E-01    3.9     0.00099176      -518.2501108257 -2.83E-02
     6 OT DIIS     0.80E-01    4.0     0.00093461      -518.2581339628 -8.02E-03
     7 OT DIIS     0.80E-01    4.2     0.00044656      -518.2615488325 -3.41E-03
     8 OT DIIS     0.80E-01    3.8     0.00024220      -518.2634029915 -1.85E-03
     9 OT DIIS     0.80E-01    3.9     0.00019073      -518.2641156408 -7.13E-04
    10 OT DIIS     0.80E-01    3.9     0.00016492      -518.2643384642 -2.23E-04
    11 OT DIIS     0.80E-01    3.9     0.00010772      -518.2645337637 -1.95E-04
    12 OT DIIS     0.80E-01    3.9     0.00008782      -518.2646559747 -1.22E-04
    13 OT DIIS     0.80E-01    3.8     0.00007767      -518.2647384477 -8.25E-05
    14 OT DIIS     0.80E-01    3.9     0.00006712      -518.2648024979 -6.41E-05
    15 OT DIIS     0.80E-01    3.8     0.00005814      -518.2648678348 -6.53E-05
    16 OT DIIS     0.80E-01    3.8     0.00005259      -518.2649291891 -6.14E-05
    17 OT DIIS     0.80E-01    3.9     0.00004592      -518.2649770956 -4.79E-05

  *** SCF run converged in    17 steps ***


  Electronic density on regular grids:       -190.9999999953        0.0000000047
  Core density on regular grids:              193.9999999906       -0.0000000094
  Total charge density on r-space grids:        2.9999999953
  Total charge density g-space grids:           2.9999999953

  Overlap energy of the core charge distribution:               0.00000428994949
  Self energy of the core charge distribution:              -1180.77596130715415
  Core Hamiltonian energy:                                    349.72688220272869
  Hartree energy:                                             417.55043897574063
  Exchange-correlation energy:                               -104.76634125690370

  Total energy:                                              -518.26497709563910

  Integrated absolute spin density  :                               9.4810500460
  Ideal and single determinant S**2 :                    0.750000       4.785333

 ENERGY| Total FORCE_EVAL ( QS ) energy (a.u.):             -518.265022232928800


 --------  Informations at step =     5 ------------
  Optimization Method        =                 BFGS
  Total Energy               =      -518.2650222329
  Real energy change         =        -0.0116697604
  Predicted change in energy =        -0.0197748203
  Scaling factor             =         0.7588957266
  Step size                  =         0.1698457264
  Trust radius               =         0.5669178399
  Decrease in energy         =                  YES
  Used time                  =               70.548

  Convergence check :
  Max. step size             =         0.1698457264
  Conv. limit for step size  =         0.1000000000
  Convergence in step size   =                   NO
  RMS step size              =         0.0567388306
  Conv. limit for RMS step   =         0.0100000000
  Convergence in RMS step    =                   NO
  Max. gradient              =         0.0370735886
  Conv. limit for gradients  =         0.1000000000
  Conv. in gradients         =                  YES
  RMS gradient               =         0.0099236640
  Conv. limit for RMS grad.  =         0.0100000000
  Conv. in RMS gradients     =                  YES
 ---------------------------------------------------

 --------------------------
 OPTIMIZATION STEP:      6
 --------------------------

 Spin 1

 Number of electrons:                                                         96
 Number of occupied orbitals:                                                 96
 Number of molecular orbitals:                                                96

 Spin 2

 Number of electrons:                                                         95
 Number of occupied orbitals:                                                 95
 Number of molecular orbitals:                                                95

 Number of orbital functions:                                                532
 Number of independent orbital functions:                                    532

 Extrapolation method: ASPC


 SCF WAVEFUNCTION OPTIMIZATION

  ----------------------------------- OT ---------------------------------------
  Minimizer      : DIIS                : direct inversion
                                         in the iterative subspace
                                         using   7 DIIS vectors
                                         safer DIIS on
  Preconditioner : FULL_SINGLE_INVERSE : inversion of 
                                         H + eS - 2*(Sc)(c^T*H*c+const)(Sc)^T
  Precond_solver : DEFAULT
  stepsize       :    0.08000000                  energy_gap     :    0.08000000
  eps_taylor     :   0.10000E-15                  max_taylor     :             4
  ----------------------------------- OT ---------------------------------------

  Step     Update method      Time    Convergence         Total energy    Change
  ------------------------------------------------------------------------------
     1 OT DIIS     0.80E-01    2.8     0.00410702      -518.0201878980 -5.18E+02
     2 OT DIIS     0.80E-01    3.9     0.00280092      -518.1284226206 -1.08E-01
     3 OT DIIS     0.80E-01    3.9     0.00215577      -518.1980679921 -6.96E-02
     4 OT DIIS     0.80E-01    3.8     0.00229935      -518.2373094183 -3.92E-02
     5 OT DIIS     0.80E-01    3.8     0.00100817      -518.2596888742 -2.24E-02
     6 OT DIIS     0.80E-01    3.8     0.00085185      -518.2683917614 -8.70E-03
     7 OT DIIS     0.80E-01    3.8     0.00044377      -518.2715597674 -3.17E-03
     8 OT DIIS     0.80E-01    3.8     0.00027459      -518.2729412230 -1.38E-03
     9 OT DIIS     0.80E-01    3.8     0.00020130      -518.2735212365 -5.80E-04
    10 OT DIIS     0.80E-01    3.8     0.00013094      -518.2738526687 -3.31E-04
    11 OT DIIS     0.80E-01    3.8     0.00008913      -518.2740631569 -2.10E-04
    12 OT DIIS     0.80E-01    3.8     0.00007487      -518.2741599004 -9.67E-05
    13 OT DIIS     0.80E-01    3.8     0.00006951      -518.2742102129 -5.03E-05
    14 OT DIIS     0.80E-01    3.8     0.00005990      -518.2742554405 -4.52E-05
    15 OT DIIS     0.80E-01    3.8     0.00005279      -518.2742963303 -4.09E-05
    16 OT DIIS     0.80E-01    3.8     0.00004625      -518.2743352140 -3.89E-05

  *** SCF run converged in    16 steps ***


  Electronic density on regular grids:       -190.9999999950        0.0000000050
  Core density on regular grids:              193.9999999907       -0.0000000093
  Total charge density on r-space grids:        2.9999999957
  Total charge density g-space grids:           2.9999999957

  Overlap energy of the core charge distribution:               0.00000497216986
  Self energy of the core charge distribution:              -1180.77596130715415
  Core Hamiltonian energy:                                    350.19095630797085
  Hartree energy:                                             417.19613216868174
  Exchange-correlation energy:                               -104.88546735571371

  Total energy:                                              -518.27433521404544

  Integrated absolute spin density  :                               9.4628919784
  Ideal and single determinant S**2 :                    0.750000       4.782549

 ENERGY| Total FORCE_EVAL ( QS ) energy (a.u.):             -518.274374728290468


 --------  Informations at step =     6 ------------
  Optimization Method        =                 BFGS
  Total Energy               =      -518.2743747283
  Real energy change         =        -0.0093524954
  Predicted change in energy =        -0.0159841986
  Scaling factor             =         0.7588957266
  Step size                  =         0.1415535782
  Trust radius               =         0.5669178399
  Decrease in energy         =                  YES
  Used time                  =               65.972

  Convergence check :
  Max. step size             =         0.1415535782
  Conv. limit for step size  =         0.1000000000
  Convergence in step size   =                   NO
  RMS step size              =         0.0445150925
  Conv. limit for RMS step   =         0.0100000000
  Convergence in RMS step    =                   NO
  Max. gradient              =         0.0313980245
  Conv. limit for gradients  =         0.1000000000
  Conv. in gradients         =                  YES
  RMS gradient               =         0.0074439793
  Conv. limit for RMS grad.  =         0.0100000000
  Conv. in RMS gradients     =                  YES
 ---------------------------------------------------

 --------------------------
 OPTIMIZATION STEP:      7
 --------------------------

 Spin 1

 Number of electrons:                                                         96
 Number of occupied orbitals:                                                 96
 Number of molecular orbitals:                                                96

 Spin 2

 Number of electrons:                                                         95
 Number of occupied orbitals:                                                 95
 Number of molecular orbitals:                                                95

 Number of orbital functions:                                                532
 Number of independent orbital functions:                                    532

 Extrapolation method: ASPC


 SCF WAVEFUNCTION OPTIMIZATION

  ----------------------------------- OT ---------------------------------------
  Minimizer      : DIIS                : direct inversion
                                         in the iterative subspace
                                         using   7 DIIS vectors
                                         safer DIIS on
  Preconditioner : FULL_SINGLE_INVERSE : inversion of 
                                         H + eS - 2*(Sc)(c^T*H*c+const)(Sc)^T
  Precond_solver : DEFAULT
  stepsize       :    0.08000000                  energy_gap     :    0.08000000
  eps_taylor     :   0.10000E-15                  max_taylor     :             4
  ----------------------------------- OT ---------------------------------------

  Step     Update method      Time    Convergence         Total energy    Change
  ------------------------------------------------------------------------------
     1 OT DIIS     0.80E-01    2.8     0.00355938      -518.0835666908 -5.18E+02
     2 OT DIIS     0.80E-01    3.8     0.00246957      -518.1675937073 -8.40E-02
     3 OT DIIS     0.80E-01    3.8     0.00182424      -518.2317490331 -6.42E-02
     4 OT DIIS     0.80E-01    3.8     0.00194094      -518.2554156350 -2.37E-02
     5 OT DIIS     0.80E-01    3.8     0.00081726      -518.2723447560 -1.69E-02
     6 OT DIIS     0.80E-01    3.8     0.00056103      -518.2790507957 -6.71E-03
     7 OT DIIS     0.80E-01    3.8     0.00039264      -518.2809803915 -1.93E-03
     8 OT DIIS     0.80E-01    3.8     0.00020633      -518.2821747905 -1.19E-03
     9 OT DIIS     0.80E-01    3.8     0.00018771      -518.2826346221 -4.60E-04
    10 OT DIIS     0.80E-01    3.8     0.00012800      -518.2828289698 -1.94E-04
    11 OT DIIS     0.80E-01    3.8     0.00009998      -518.2829975403 -1.69E-04
    12 OT DIIS     0.80E-01    3.8     0.00009208      -518.2830930646 -9.55E-05
    13 OT DIIS     0.80E-01    3.8     0.00007853      -518.2831732982 -8.02E-05
    14 OT DIIS     0.80E-01    3.8     0.00006989      -518.2832586284 -8.53E-05
    15 OT DIIS     0.80E-01    3.8     0.00006877      -518.2833237754 -6.51E-05
    16 OT DIIS     0.80E-01    3.8     0.00006010      -518.2833898452 -6.61E-05
    17 OT DIIS     0.80E-01    3.8     0.00005458      -518.2834670629 -7.72E-05
    18 OT DIIS     0.80E-01    3.8     0.00004882      -518.2835395442 -7.25E-05

  *** SCF run converged in    18 steps ***


  Electronic density on regular grids:       -190.9999999952        0.0000000048
  Core density on regular grids:              193.9999999907       -0.0000000093
  Total charge density on r-space grids:        2.9999999955
  Total charge density g-space grids:           2.9999999955

  Overlap energy of the core charge distribution:               0.00000511820830
  Self energy of the core charge distribution:              -1180.77596130715415
  Core Hamiltonian energy:                                    350.32805400966720
  Hartree energy:                                             417.08934224457931
  Exchange-correlation energy:                               -104.92497960946082

  Total energy:                                              -518.28353954416025

  Integrated absolute spin density  :                               9.4656418042
  Ideal and single determinant S**2 :                    0.750000       4.781834

 ENERGY| Total FORCE_EVAL ( QS ) energy (a.u.):             -518.283602362499096


 --------  Informations at step =     7 ------------
  Optimization Method        =                 BFGS
  Total Energy               =      -518.2836023625
  Real energy change         =        -0.0092276342
  Predicted change in energy =        -0.0119710881
  Scaling factor             =         0.7588957266
  Step size                  =         0.1066307750
  Trust radius               =         0.5669178399
  Decrease in energy         =                  YES
  Used time                  =               73.518

  Convergence check :
  Max. step size             =         0.1066307750
  Conv. limit for step size  =         0.1000000000
  Convergence in step size   =                   NO
  RMS step size              =         0.0341808654
  Conv. limit for RMS step   =         0.0100000000
  Convergence in RMS step    =                   NO
  Max. gradient              =         0.0172404746
  Conv. limit for gradients  =         0.1000000000
  Conv. in gradients         =                  YES
  RMS gradient               =         0.0053129217
  Conv. limit for RMS grad.  =         0.0100000000
  Conv. in RMS gradients     =                  YES
 ---------------------------------------------------

 --------------------------
 OPTIMIZATION STEP:      8
 --------------------------

 Spin 1

 Number of electrons:                                                         96
 Number of occupied orbitals:                                                 96
 Number of molecular orbitals:                                                96

 Spin 2

 Number of electrons:                                                         95
 Number of occupied orbitals:                                                 95
 Number of molecular orbitals:                                                95

 Number of orbital functions:                                                532
 Number of independent orbital functions:                                    532

 Extrapolation method: ASPC


 SCF WAVEFUNCTION OPTIMIZATION

  ----------------------------------- OT ---------------------------------------
  Minimizer      : DIIS                : direct inversion
                                         in the iterative subspace
                                         using   7 DIIS vectors
                                         safer DIIS on
  Preconditioner : FULL_SINGLE_INVERSE : inversion of 
                                         H + eS - 2*(Sc)(c^T*H*c+const)(Sc)^T
  Precond_solver : DEFAULT
  stepsize       :    0.08000000                  energy_gap     :    0.08000000
  eps_taylor     :   0.10000E-15                  max_taylor     :             4
  ----------------------------------- OT ---------------------------------------

  Step     Update method      Time    Convergence         Total energy    Change
  ------------------------------------------------------------------------------
     1 OT DIIS     0.80E-01    2.8     0.00295438      -518.1530144623 -5.18E+02
     2 OT DIIS     0.80E-01    3.8     0.00201907      -518.2093392719 -5.63E-02
     3 OT DIIS     0.80E-01    3.8     0.00150440      -518.2468946076 -3.76E-02
     4 OT DIIS     0.80E-01    3.8     0.00162706      -518.2680864186 -2.12E-02
     5 OT DIIS     0.80E-01    3.8     0.00072643      -518.2785506498 -1.05E-02
     6 OT DIIS     0.80E-01    3.8     0.00051905      -518.2832284856 -4.68E-03
     7 OT DIIS     0.80E-01    3.8     0.00031885      -518.2847374275 -1.51E-03
     8 OT DIIS     0.80E-01    3.8     0.00018137      -518.2855549281 -8.18E-04
     9 OT DIIS     0.80E-01    3.8     0.00012965      -518.2859536381 -3.99E-04
    10 OT DIIS     0.80E-01    3.8     0.00010862      -518.2861487914 -1.95E-04
    11 OT DIIS     0.80E-01    3.8     0.00008502      -518.2862612232 -1.12E-04
    12 OT DIIS     0.80E-01    3.8     0.00007390      -518.2863478072 -8.66E-05
    13 OT DIIS     0.80E-01    3.8     0.00007023      -518.2864088628 -6.11E-05
    14 OT DIIS     0.80E-01   13.2     0.00006341      -518.2864629634 -5.41E-05
    15 OT DIIS     0.80E-01   13.8     0.00005486      -518.2865270690 -6.41E-05
    16 OT DIIS     0.80E-01   13.7     0.00005064      -518.2865901196 -6.31E-05
    17 OT DIIS     0.80E-01    4.8     0.00004520      -518.2866443149 -5.42E-05

  *** SCF run converged in    17 steps ***


  Electronic density on regular grids:       -190.9999999942        0.0000000058
  Core density on regular grids:              193.9999999906       -0.0000000094
  Total charge density on r-space grids:        2.9999999964
  Total charge density g-space grids:           2.9999999964

  Overlap energy of the core charge distribution:               0.00000497870727
  Self energy of the core charge distribution:              -1180.77596130715415
  Core Hamiltonian energy:                                    350.22907229037202
  Hartree energy:                                             417.16005776015953
  Exchange-correlation energy:                               -104.89981803701508

  Total energy:                                              -518.28664431493030

  Integrated absolute spin density  :                               9.4719397268
  Ideal and single determinant S**2 :                    0.750000       4.781385

 ENERGY| Total FORCE_EVAL ( QS ) energy (a.u.):             -518.286700187460610


 --------  Informations at step =     8 ------------
  Optimization Method        =                 BFGS
  Total Energy               =      -518.2867001875
  Real energy change         =        -0.0030978250
  Predicted change in energy =        -0.0063042135
  Scaling factor             =         0.7588957266
  Step size                  =         0.0640480147
  Trust radius               =         0.5669178399
  Decrease in energy         =                  YES
  Used time                  =               99.798

  Convergence check :
  Max. step size             =         0.0640480147
  Conv. limit for step size  =         0.1000000000
  Convergence in step size   =                  YES
  RMS step size              =         0.0276615538
  Conv. limit for RMS step   =         0.0100000000
  Convergence in RMS step    =                   NO
  Max. gradient              =         0.0217344780
  Conv. limit for gradients  =         0.1000000000
  Conv. in gradients         =                  YES
  RMS gradient               =         0.0053116930
  Conv. limit for RMS grad.  =         0.0100000000
  Conv. in RMS gradients     =                  YES
 ---------------------------------------------------

 --------------------------
 OPTIMIZATION STEP:      9
 --------------------------

 Spin 1

 Number of electrons:                                                         96
 Number of occupied orbitals:                                                 96
 Number of molecular orbitals:                                                96

 Spin 2

 Number of electrons:                                                         95
 Number of occupied orbitals:                                                 95
 Number of molecular orbitals:                                                95

 Number of orbital functions:                                                532
 Number of independent orbital functions:                                    532

 Extrapolation method: ASPC


 SCF WAVEFUNCTION OPTIMIZATION

  ----------------------------------- OT ---------------------------------------
  Minimizer      : DIIS                : direct inversion
                                         in the iterative subspace
                                         using   7 DIIS vectors
                                         safer DIIS on
  Preconditioner : FULL_SINGLE_INVERSE : inversion of 
                                         H + eS - 2*(Sc)(c^T*H*c+const)(Sc)^T
  Precond_solver : DEFAULT
  stepsize       :    0.08000000                  energy_gap     :    0.08000000
  eps_taylor     :   0.10000E-15                  max_taylor     :             4
  ----------------------------------- OT ---------------------------------------

  Step     Update method      Time    Convergence         Total energy    Change
  ------------------------------------------------------------------------------
     1 OT DIIS     0.80E-01    2.8     0.00246373      -518.1943551797 -5.18E+02
     2 OT DIIS     0.80E-01    3.8     0.00169165      -518.2338114452 -3.95E-02
     3 OT DIIS     0.80E-01    3.8     0.00126479      -518.2606996639 -2.69E-02
     4 OT DIIS     0.80E-01    3.8     0.00121042      -518.2749332832 -1.42E-02
     5 OT DIIS     0.80E-01    3.8     0.00068018      -518.2818279272 -6.89E-03
     6 OT DIIS     0.80E-01    3.8     0.00056013      -518.2847983501 -2.97E-03
     7 OT DIIS     0.80E-01    3.8     0.00029881      -518.2860569274 -1.26E-03
     8 OT DIIS     0.80E-01    3.8     0.00016880      -518.2867961309 -7.39E-04
     9 OT DIIS     0.80E-01    3.8     0.00016769      -518.2870142758 -2.18E-04
    10 OT DIIS     0.80E-01    3.8     0.00010624      -518.2871539089 -1.40E-04
    11 OT DIIS     0.80E-01    3.8     0.00008167      -518.2872687330 -1.15E-04
    12 OT DIIS     0.80E-01    3.8     0.00006886      -518.2873455626 -7.68E-05
    13 OT DIIS     0.80E-01    3.8     0.00006552      -518.2873963244 -5.08E-05
    14 OT DIIS     0.80E-01    3.8     0.00006104      -518.2874332523 -3.69E-05
    15 OT DIIS     0.80E-01    3.8     0.00005622      -518.2874727446 -3.95E-05
    16 OT DIIS     0.80E-01    3.8     0.00005011      -518.2875080296 -3.53E-05
    17 OT DIIS     0.80E-01    3.8     0.00004538      -518.2875543674 -4.63E-05

  *** SCF run converged in    17 steps ***


  Electronic density on regular grids:       -190.9999999942        0.0000000058
  Core density on regular grids:              193.9999999906       -0.0000000094
  Total charge density on r-space grids:        2.9999999964
  Total charge density g-space grids:           2.9999999964

  Overlap energy of the core charge distribution:               0.00000495976043
  Self energy of the core charge distribution:              -1180.77596130715415
  Core Hamiltonian energy:                                    350.17242008771564
  Hartree energy:                                             417.19883718783802
  Exchange-correlation energy:                               -104.88285529553600

  Total energy:                                              -518.28755436737606

  Integrated absolute spin density  :                               9.4734762679
  Ideal and single determinant S**2 :                    0.750000       4.781689

 ENERGY| Total FORCE_EVAL ( QS ) energy (a.u.):             -518.287583285102073


 --------  Informations at step =     9 ------------
  Optimization Method        =                 BFGS
  Total Energy               =      -518.2875832851
  Real energy change         =        -0.0008830976
  Predicted change in energy =        -0.0054787546
  Scaling factor             =         0.7588957266
  Step size                  =         0.0660415258
  Trust radius               =         0.5669178399
  Decrease in energy         =                  YES
  Used time                  =               69.621

  Convergence check :
  Max. step size             =         0.0660415258
  Conv. limit for step size  =         0.1000000000
  Convergence in step size   =                  YES
  RMS step size              =         0.0254834989
  Conv. limit for RMS step   =         0.0100000000
  Convergence in RMS step    =                   NO
  Max. gradient              =         0.0207344769
  Conv. limit for gradients  =         0.1000000000
  Conv. in gradients         =                  YES
  RMS gradient               =         0.0048618438
  Conv. limit for RMS grad.  =         0.0100000000
  Conv. in RMS gradients     =                  YES
 ---------------------------------------------------

 --------------------------
 OPTIMIZATION STEP:     10
 --------------------------

 Spin 1

 Number of electrons:                                                         96
 Number of occupied orbitals:                                                 96
 Number of molecular orbitals:                                                96

 Spin 2

 Number of electrons:                                                         95
 Number of occupied orbitals:                                                 95
 Number of molecular orbitals:                                                95

 Number of orbital functions:                                                532
 Number of independent orbital functions:                                    532

 Extrapolation method: ASPC


 SCF WAVEFUNCTION OPTIMIZATION

  ----------------------------------- OT ---------------------------------------
  Minimizer      : DIIS                : direct inversion
                                         in the iterative subspace
                                         using   7 DIIS vectors
                                         safer DIIS on
  Preconditioner : FULL_SINGLE_INVERSE : inversion of 
                                         H + eS - 2*(Sc)(c^T*H*c+const)(Sc)^T
  Precond_solver : DEFAULT
  stepsize       :    0.08000000                  energy_gap     :    0.08000000
  eps_taylor     :   0.10000E-15                  max_taylor     :             4
  ----------------------------------- OT ---------------------------------------

  Step     Update method      Time    Convergence         Total energy    Change
  ------------------------------------------------------------------------------
     1 OT DIIS     0.80E-01    2.8     0.00229107      -518.2078677581 -5.18E+02
     2 OT DIIS     0.80E-01    3.8     0.00159910      -518.2425057872 -3.46E-02
     3 OT DIIS     0.80E-01    3.8     0.00122406      -518.2678039235 -2.53E-02
     4 OT DIIS     0.80E-01    3.8     0.00121877      -518.2791787447 -1.14E-02
     5 OT DIIS     0.80E-01    3.8     0.00059896      -518.2860091076 -6.83E-03
     6 OT DIIS     0.80E-01    3.8     0.00043662      -518.2884161187 -2.41E-03
     7 OT DIIS     0.80E-01   13.4     0.00022670      -518.2896430206 -1.23E-03
     8 OT DIIS     0.80E-01   14.2     0.00012549      -518.2901707013 -5.28E-04
     9 OT DIIS     0.80E-01   13.1     0.00010460      -518.2903340736 -1.63E-04
    10 OT DIIS     0.80E-01    3.9     0.00007740      -518.2904044397 -7.04E-05
    11 OT DIIS     0.80E-01    3.8     0.00005470      -518.2904723790 -6.79E-05
    12 OT DIIS     0.80E-01    3.8     0.00004823      -518.2905057926 -3.34E-05

  *** SCF run converged in    12 steps ***


  Electronic density on regular grids:       -190.9999999942        0.0000000058
  Core density on regular grids:              193.9999999907       -0.0000000093
  Total charge density on r-space grids:        2.9999999965
  Total charge density g-space grids:           2.9999999965

  Overlap energy of the core charge distribution:               0.00000516505545
  Self energy of the core charge distribution:              -1180.77596130715415
  Core Hamiltonian energy:                                    350.25799002403301
  Hartree energy:                                             417.13476667416421
  Exchange-correlation energy:                               -104.90730634869377

  Total energy:                                              -518.29050579259524

  Integrated absolute spin density  :                               9.4679607620
  Ideal and single determinant S**2 :                    0.750000       4.782268

 ENERGY| Total FORCE_EVAL ( QS ) energy (a.u.):             -518.290528628026664


 --------  Informations at step =    10 ------------
  Optimization Method        =                 BFGS
  Total Energy               =      -518.2905286280
  Real energy change         =        -0.0029453429
  Predicted change in energy =        -0.0042198814
  Scaling factor             =         0.7588957266
  Step size                  =         0.0414534112
  Trust radius               =         0.5669178399
  Decrease in energy         =                  YES
  Used time                  =               79.640

  Convergence check :
  Max. step size             =         0.0414534112
  Conv. limit for step size  =         0.1000000000
  Convergence in step size   =                  YES
  RMS step size              =         0.0184021208
  Conv. limit for RMS step   =         0.0100000000
  Convergence in RMS step    =                   NO
  Max. gradient              =         0.0162249488
  Conv. limit for gradients  =         0.1000000000
  Conv. in gradients         =                  YES
  RMS gradient               =         0.0038267873
  Conv. limit for RMS grad.  =         0.0100000000
  Conv. in RMS gradients     =                  YES
 ---------------------------------------------------

 --------------------------
 OPTIMIZATION STEP:     11
 --------------------------

 Spin 1

 Number of electrons:                                                         96
 Number of occupied orbitals:                                                 96
 Number of molecular orbitals:                                                96

 Spin 2

 Number of electrons:                                                         95
 Number of occupied orbitals:                                                 95
 Number of molecular orbitals:                                                95

 Number of orbital functions:                                                532
 Number of independent orbital functions:                                    532

 Extrapolation method: ASPC


 SCF WAVEFUNCTION OPTIMIZATION

  ----------------------------------- OT ---------------------------------------
  Minimizer      : DIIS                : direct inversion
                                         in the iterative subspace
                                         using   7 DIIS vectors
                                         safer DIIS on
  Preconditioner : FULL_SINGLE_INVERSE : inversion of 
                                         H + eS - 2*(Sc)(c^T*H*c+const)(Sc)^T
  Precond_solver : DEFAULT
  stepsize       :    0.08000000                  energy_gap     :    0.08000000
  eps_taylor     :   0.10000E-15                  max_taylor     :             4
  ----------------------------------- OT ---------------------------------------

  Step     Update method      Time    Convergence         Total energy    Change
  ------------------------------------------------------------------------------
     1 OT DIIS     0.80E-01    2.8     0.00194512      -518.2297538670 -5.18E+02
     2 OT DIIS     0.80E-01    3.8     0.00138471      -518.2544924363 -2.47E-02
     3 OT DIIS     0.80E-01    3.8     0.00146099      -518.2696547592 -1.52E-02
     4 OT DIIS     0.80E-01    8.6     0.00094804      -518.2787090239 -9.05E-03
     5 OT DIIS     0.80E-01    3.8     0.00043927      -518.2860509456 -7.34E-03
     6 OT DIIS     0.80E-01    3.8     0.00033935      -518.2882152086 -2.16E-03
     7 OT DIIS     0.80E-01    3.8     0.00027107      -518.2888205929 -6.05E-04
     8 OT DIIS     0.80E-01    3.8     0.00017566      -518.2892037612 -3.83E-04
     9 OT DIIS     0.80E-01    3.8     0.00012408      -518.2893385124 -1.35E-04
    10 OT DIIS     0.80E-01    3.8     0.00008369      -518.2894660760 -1.28E-04
    11 OT DIIS     0.80E-01    3.8     0.00007024      -518.2895498880 -8.38E-05
    12 OT DIIS     0.80E-01    3.8     0.00005953      -518.2896154360 -6.55E-05
    13 OT DIIS     0.80E-01    3.8     0.00005595      -518.2896609310 -4.55E-05
    14 OT DIIS     0.80E-01    3.8     0.00005107      -518.2896972583 -3.63E-05
    15 OT DIIS     0.80E-01    3.8     0.00004723      -518.2897385080 -4.12E-05

  *** SCF run converged in    15 steps ***


  Electronic density on regular grids:       -190.9999999948        0.0000000052
  Core density on regular grids:              193.9999999907       -0.0000000093
  Total charge density on r-space grids:        2.9999999959
  Total charge density g-space grids:           2.9999999959

  Overlap energy of the core charge distribution:               0.00000528398398
  Self energy of the core charge distribution:              -1180.77596130715415
  Core Hamiltonian energy:                                    350.30678909210712
  Hartree energy:                                             417.10024881896391
  Exchange-correlation energy:                               -104.92082039591101

  Total energy:                                              -518.28973850801026

  Integrated absolute spin density  :                               9.4692036480
  Ideal and single determinant S**2 :                    0.750000       4.783298

 ENERGY| Total FORCE_EVAL ( QS ) energy (a.u.):             -518.289776653670515


 --------  Informations at step =    11 ------------
  Optimization Method        =                 BFGS
  Total Energy               =      -518.2897766537
  Real energy change         =         0.0007519744
  Predicted change in energy =        -0.0037208754
[...]
 flops   13 x   31 x   32                49520640       0.0%    100.0%      0.0%
 flops   13 x   32 x   31                49520640       0.0%    100.0%      0.0%
 flops   42 x   32 x   32                49545216       0.0%    100.0%      0.0%
 flops   42 x   42 x   31                84322728       0.0%    100.0%      0.0%
 flops   44 x   31 x   44                84982656       0.0%    100.0%      0.0%
 flops   44 x   31 x   47                90776928       0.0%    100.0%      0.0%
 flops   47 x   31 x   44                90776928       0.0%    100.0%      0.0%
 flops   47 x   31 x   47                96966264       0.0%    100.0%      0.0%
 flops   42 x    5 x   31               100384200       0.0%    100.0%      0.0%
 flops    5 x   42 x   31               100384200       0.0%    100.0%      0.0%
 flops    5 x   32 x   32               117964800       0.0%    100.0%      0.0%
 flops   42 x   31 x   42               181441512       0.0%    100.0%      0.0%
 flops    5 x    5 x   31               203657600       0.0%    100.0%      0.0%
 flops   31 x   31 x   44               228671872       0.0%    100.0%      0.0%
 flops   31 x   31 x   47               244263136       0.0%    100.0%      0.0%
 flops   44 x   31 x   31               280427488       0.0%    100.0%      0.0%
 flops   47 x   31 x   31               299547544       0.0%    100.0%      0.0%
 flops   13 x   42 x   31               391498380       0.0%    100.0%      0.0%
 flops   42 x   13 x   31               391498380       0.0%    100.0%      0.0%
 flops   31 x   31 x   31               396220300       0.0%    100.0%      0.0%
 flops    5 x   31 x   42               432003600       0.0%    100.0%      0.0%
 flops   42 x   31 x    5               432003600       0.0%    100.0%      0.0%
 flops   42 x   42 x   32               435214080       0.0%    100.0%      0.0%
 flops   44 x   32 x   44               438620160       0.0%    100.0%      0.0%
 flops   13 x   32 x   32               460062720       0.0%    100.0%      0.0%
 flops   47 x   32 x   44               468526080       0.0%    100.0%      0.0%
 flops   44 x   32 x   47               468526080       0.0%    100.0%      0.0%
 flops   31 x   32 x   44               469303296       0.0%    100.0%      0.0%
 flops   32 x   31 x   44               469303296       0.0%    100.0%      0.0%
 flops   47 x   32 x   47               500471040       0.0%    100.0%      0.0%
 flops   31 x   32 x   47               501301248       0.0%    100.0%      0.0%
 flops   32 x   31 x   47               501301248       0.0%    100.0%      0.0%
 flops   42 x    5 x   32               518112000       0.0%    100.0%      0.0%
 flops    5 x   42 x   32               518112000       0.0%    100.0%      0.0%
 flops   44 x   31 x   32               578947072       0.0%    100.0%      0.0%
 flops   44 x   32 x   31               578947072       0.0%    100.0%      0.0%
 flops   47 x   32 x   31               618420736       0.0%    100.0%      0.0%
 flops   47 x   31 x   32               618420736       0.0%    100.0%      0.0%
 flops    5 x   31 x    5               815613100       0.0%    100.0%      0.0%
 flops   31 x   31 x   32               818003200       0.0%    100.0%      0.0%
 flops   31 x   32 x   31               818003200       0.0%    100.0%      0.0%
 flops   32 x   31 x   31               818003200       0.0%    100.0%      0.0%
 flops    5 x   13 x   31               841282650       0.0%    100.0%      0.0%
 flops   13 x    5 x   31               849423250       0.0%    100.0%      0.0%
 flops   49 x   31 x   44               851757984       0.0%    100.0%      0.0%
 flops   44 x   31 x   49               851757984       0.0%    100.0%      0.0%
 flops   49 x   31 x   47               909832392       0.0%    100.0%      0.0%
 flops   47 x   31 x   49               909832392       0.0%    100.0%      0.0%
 flops   42 x   32 x   42               925634304       0.0%    100.0%      0.0%
 flops    5 x    5 x   32              1051136000       0.0%    100.0%      0.0%
 flops   13 x   31 x   42              1684814040       0.0%    100.0%      0.0%
 flops   42 x   31 x   13              1684814040       0.0%    100.0%      0.0%
 flops   32 x   32 x   31              1688780800       0.0%    100.0%      0.0%
 flops   31 x   32 x   32              1688780800       0.0%    100.0%      0.0%
 flops   32 x   31 x   32              1688780800       0.0%    100.0%      0.0%
 flops   13 x   42 x   32              2020636800       0.0%    100.0%      0.0%
 flops   42 x   13 x   32              2020636800       0.0%    100.0%      0.0%
 flops   42 x   32 x    5              2203891200       0.0%    100.0%      0.0%
 flops    5 x   32 x   42              2203891200       0.0%    100.0%      0.0%
 flops   31 x   31 x   49              2291915808       0.0%    100.0%      0.0%
 flops   49 x   31 x   31              2810648232       0.0%    100.0%      0.0%
 flops   32 x   32 x   44              3156082688       0.0%    100.0%      0.0%
 flops   32 x   32 x   47              3371270144       0.0%    100.0%      0.0%
 flops    5 x   31 x   13              3620709170       0.0%    100.0%      0.0%
 flops   13 x   31 x    5              3620709170       0.0%    100.0%      0.0%
 flops   13 x   13 x   31              3633298890       0.0%    100.0%      0.0%
 flops   44 x   32 x   32              3884548096       0.0%    100.0%      0.0%
 flops   47 x   32 x   32              4149403648       0.0%    100.0%      0.0%
 flops    5 x   32 x    5              4161308800       0.0%    100.0%      0.0%
 flops    5 x   13 x   32              4342104000       0.0%    100.0%      0.0%
 flops   13 x    5 x   32              4384120000       0.0%    100.0%      0.0%
 flops   49 x   32 x   44              4396170240       0.0%    100.0%      0.0%
 flops   44 x   32 x   49              4396170240       0.0%    100.0%      0.0%
 flops   47 x   32 x   49              4695909120       0.0%    100.0%      0.0%
 flops   49 x   32 x   47              4695909120       0.0%    100.0%      0.0%
 flops   31 x   32 x   49              4703698944       0.0%    100.0%      0.0%
 flops   32 x   31 x   49              4703698944       0.0%    100.0%      0.0%
 flops   49 x   31 x   32              5802628608       0.0%    100.0%      0.0%
 flops   49 x   32 x   31              5802628608       0.0%    100.0%      0.0%
 flops   49 x   31 x   49              8536937976       0.0%    100.0%      0.0%
 flops   42 x   32 x   13              8595175680       0.0%    100.0%      0.0%
 flops   13 x   32 x   42              8595175680       0.0%    100.0%      0.0%
 flops   13 x   31 x   13             15090101260       0.0%    100.0%      0.0%
 flops   32 x   32 x   32             15520694272       0.0%    100.0%      0.0%
 flops    5 x   32 x   13             18472039040       0.0%    100.0%      0.0%
 flops   13 x   32 x    5             18472039040       0.0%    100.0%      0.0%
 flops   13 x   13 x   32             18752510400       0.0%    100.0%      0.0%
 flops   32 x   32 x   49             31632556032       0.0%    100.0%      0.0%
 flops   49 x   32 x   32             38933766144       0.0%    100.0%      0.0%
 flops   49 x   32 x   49             44061615360       0.0%    100.0%      0.0%
 flops   13 x   32 x   13             76984026496       0.0%    100.0%      0.0%
 flops total                       426.256345E+09       0.0%    100.0%      0.0%
 flops max/rank                     18.485798E+09       0.0%    100.0%      0.0%
 matmuls inhomo. stacks                         0       0.0%      0.0%      0.0%
 matmuls total                           31086309       0.0%    100.0%      0.0%
 number of processed stacks               8837121       0.0%    100.0%      0.0%
 average stack size                                     0.0       3.5       0.0
 marketing flops                   479.639306E+09
 -------------------------------------------------------------------------------
 # multiplications                          31927
 max memory usage/rank             369.500160E+06
 # max total images/rank                        1
 # MPI messages exchanged                77263340
 # MPI messages filtered                        0
 MPI messages size (elements):
  total size                        28.764289E+09
  min size                           0.000000E+00
  max size                           2.401000E+03
  average size                     372.288940E+00
 MPI breakdown and total messages size (bytes):
             size <=      128            60178720                        0
       128 < size <=     8192             3025740              24532319360
      8192 < size <=    32768            14058880             205587158880
     32768 < size <=   131072                   0                        0
    131072 < size <=  4194304                   0                        0
   4194304 < size <= 16777216                   0                        0
  16777216 < size                               0                        0
 -------------------------------------------------------------------------------

 MEMORY| Estimated peak process memory [MiB]                                 353

 -------------------------------------------------------------------------------
 -                                                                             -
 -                         MESSAGE PASSING PERFORMANCE                         -
 -                                                                             -
 -------------------------------------------------------------------------------

 ROUTINE             CALLS  TOT TIME [s]  AVE VOLUME [Bytes]  PERFORMANCE [MB/s]
 MP_Group                5         0.000
 MP_Bcast            47557         1.323              44306.             1592.67
 MP_Allreduce       202821       166.903                122.                0.15
 MP_Sync               632         0.052
 MP_Alltoall        137591      1015.702            2863609.              387.92
 MP_ISendRecv       679200         5.883              72192.             8334.97
 MP_Wait           4749132       647.720
 MP_comm_split         628         0.991
 MP_ISend          2131227         6.819              42912.            13411.55
 MP_IRecv          2131227         0.817              42733.           111522.94
 MP_Recv              1220         0.046              33099.              877.82
 MP_Memory         1262912         0.243
 -------------------------------------------------------------------------------


 -------------------------------------------------------------------------------
 -                                                                             -
 -                           R E F E R E N C E S                               -
 -                                                                             -
 -------------------------------------------------------------------------------
 
 CP2K version 4.1, the CP2K developers group (2016).
 CP2K is freely available from https://www.cp2k.org/ .

 Schuett, Ole; Messmer, Peter; Hutter, Juerg; VandeVondele, Joost. 
 Electronic Structure Calculations on Graphics Processing Units, John Wiley & Sons, Ltd, 173-190 (2016). 
 GPU-Accelerated Sparse Matrix-Matrix Multiplication for Linear Scaling Density Functional Theory.
 http://dx.doi.org/10.1002/9781118670712.ch8


 Borstnik, U; VandeVondele, J; Weber, V; Hutter, J. 
 PARALLEL COMPUTING, 40 (5-6), 47-58 (2014). 
 Sparse matrix multiplication: The distributed block-compressed sparse
 row library.
 http://dx.doi.org/10.1016/j.parco.2014.03.012


 Hutter, J; Iannuzzi, M; Schiffmann, F; VandeVondele, J. 
 WILEY INTERDISCIPLINARY REVIEWS-COMPUTATIONAL MOLECULAR SCIENCE, 4 (1), 15-25 (2014). 
 CP2K: atomistic simulations of condensed matter systems.
 http://dx.doi.org/10.1002/wcms.1159


 VandeVondele, J; Hutter, J. 
 JOURNAL OF CHEMICAL PHYSICS, 127 (11), 114105 (2007). 
 Gaussian basis sets for accurate calculations on molecular systems in
 gas and condensed phases.
 http://dx.doi.org/10.1063/1.2770708


 Krack, M. 
 THEORETICAL CHEMISTRY ACCOUNTS, 114 (1-3), 145-152 (2005). 
 Pseudopotentials for H to Kr optimized for gradient-corrected
 exchange-correlation functionals.
 http://dx.doi.org/10.1007/s00214-005-0655-y


 VandeVondele, J; Krack, M; Mohamed, F; Parrinello, M; Chassaing, T;
 Hutter, J. COMPUTER PHYSICS COMMUNICATIONS, 167 (2), 103-128 (2005). 
 QUICKSTEP: Fast and accurate density functional calculations using a
 mixed Gaussian and plane waves approach.
 http://dx.doi.org/10.1016/j.cpc.2004.12.014


 Frigo, M; Johnson, SG. 
 PROCEEDINGS OF THE IEEE, 93 (2), 216-231 (2005). 
 The design and implementation of FFTW3.
 http://dx.doi.org/10.1109/JPROC.2004.840301


 Kolafa, J. 
 JOURNAL OF COMPUTATIONAL CHEMISTRY, 25 (3), 335-342 (2004). 
 Time-reversible always stable predictor-corrector method for molecular dynamics of polarizable molecules.
 http://dx.doi.org/10.1002/jcc.10385


 VandeVondele, J; Hutter, J. 
 JOURNAL OF CHEMICAL PHYSICS, 118 (10), 4365-4369 (2003). 
 An efficient orbital transformation method for electronic structure
 calculations.
 http://dx.doi.org/10.1063/1.1543154


 Hartwigsen, C; Goedecker, S; Hutter, J. 
 PHYSICAL REVIEW B, 58 (7), 3641-3662 (1998). 
 Relativistic separable dual-space Gaussian pseudopotentials from H to Rn.
 http://dx.doi.org/10.1103/PhysRevB.58.3641


 Lippert, G; Hutter, J; Parrinello, M. 
 MOLECULAR PHYSICS, 92 (3), 477-487 (1997). 
 A hybrid Gaussian and plane wave density functional scheme.
 http://dx.doi.org/10.1080/002689797170220


 Perdew, JP; Burke, K; Ernzerhof, M. 
 PHYSICAL REVIEW LETTERS, 77 (18), 3865-3868 (1996). 
 Generalized gradient approximation made simple.
 http://dx.doi.org/10.1103/PhysRevLett.77.3865


 Goedecker, S; Teter, M; Hutter, J. 
 PHYSICAL REVIEW B, 54 (3), 1703-1710 (1996). 
 Separable dual-space Gaussian pseudopotentials.
 http://dx.doi.org/10.1103/PhysRevB.54.1703


 -------------------------------------------------------------------------------
 -                                                                             -
 -                                T I M I N G                                  -
 -                                                                             -
 -------------------------------------------------------------------------------
 SUBROUTINE                       CALLS  ASD         SELF TIME        TOTAL TIME
                                MAXIMUM       AVERAGE  MAXIMUM  AVERAGE  MAXIMUM
 CP2K                                 1  1.0    0.131    0.165 3009.894 3009.897
 cp_geo_opt                           1  2.0    0.000    0.001 3006.989 3006.990
 geoopt_bfgs                          1  3.0    0.007    0.009 3006.988 3006.990
 cp_eval_at                          32  4.0    0.007    0.018 3005.565 3005.585
 qs_forces                           31  5.0    0.004    0.005 2965.239 2965.239
 qs_energies                         32  6.0    0.002    0.002 2906.243 2906.245
 scf_env_do_scf                      32  7.0    0.002    0.004 2857.964 2857.982
 scf_env_do_scf_inner_loop          676  8.0    0.031    0.072 2755.431 2755.471
 rebuild_ks_matrix                  707  9.9    0.004    0.006 1964.139 1964.423
 qs_ks_build_kohn_sham_matrix       707 10.9    0.157    0.201 1964.135 1964.419
 qs_ks_update_qs_env                708  9.0    0.027    0.038 1873.329 1873.587
 pw_transfer                      24787 13.6    2.489    3.193 1491.789 1616.059
 fft_wrap_pw1pw2                  23373 14.7    0.342    0.410 1478.760 1608.258
 fft_wrap_pw1pw2_250              14883 15.8  136.598  159.143 1420.253 1522.192
 fft3d_ps                         23373 16.7  554.689  602.134 1115.958 1397.399
 qs_vxc_create                      707 11.9    0.031    0.053 1229.195 1241.239
 xc_vxc_pw_create                   707 12.9   20.595   31.693 1229.164 1241.213
 mp_alltoall_z22v                 23373 18.7  409.641  920.875  409.641  920.875
 rs_pw_transfer                   11383 13.4    0.229    0.365  800.715  831.432
 qs_rho_update_rho                  708  9.0    0.010    0.017  749.955  750.038
 calculate_rho_elec                1416 10.0    8.098   19.410  749.945  750.027
 density_rs2pw                     1416 11.0    0.076    0.091  678.903  695.884
 sum_up_and_integrate               707 11.9    4.691    5.757  604.093  606.140
 xc_rho_set_and_dset_create         707 13.9   16.329   18.527  553.735  605.681
 integrate_v_rspace                1414 12.9    4.593   19.590  599.396  603.233
 potential_pw2rs                   1414 13.9    0.179    0.209  580.201  588.273
 mp_waitany                      726695 15.4  302.559  514.700  302.559  514.700
 x_to_yz                           9193 18.0   79.648   90.115  272.134  512.797
 yz_to_x                           8520 17.4   57.724   68.948  271.914  480.279
 rs_pw_transfer_RS2PW_250          1448 13.0  116.111  154.200  264.294  295.559
 rs_pw_transfer_PW2RS_250          1445 15.8  121.318  143.641  260.600  287.669
 qs_scf_new_mos                     676  9.0    0.003    0.010  254.149  254.356
 qs_scf_loop_do_ot                  676 10.0    0.002    0.003  254.146  254.352
 ot_scf_mini                        676 11.0    0.021    0.025  246.521  246.722
 mp_waitall_1                   4022437 17.1  177.222  225.132  177.222  225.132
 dbcsr_multiply_generic           31927 14.1    0.411    0.431  215.982  220.818
 ot_mini                            676 12.0    0.004    0.032  162.874  163.160
 qs_ot_get_derivative              1352 13.0    0.011    0.012  142.177  142.515
 rs_pw_transfer_PW2RS_90           1414 15.9   16.564   20.649   71.672  137.602
 pw_scatter_p                     12021 17.2  120.947  133.314  120.947  133.314
 pw_derive                         8484 14.4  104.110  120.783  104.110  120.783
 pw_gather_p                      11352 16.1  101.318  109.153  101.318  109.153
 init_scf_loop                       32  8.0    0.003    0.003  102.477  102.494
 qs_ks_update_qs_env_forces          31  6.0    0.000    0.001   93.243   93.262
 xc_functional_eval                 707 14.9    0.013    0.021   42.811   92.568
 pbe_lsd_eval                       707 15.9   42.799   92.559   42.799   92.559
 rs_grid_zero                      8555 13.0   84.505   91.509   84.505   91.509
 mp_sum_d                         46050 14.8   33.690   83.542   33.690   83.542
 fft_wrap_pw1pw2_90                2830 15.4    2.808    3.971   37.846   77.612
 qs_ot_get_derivative_taylor        783 14.0    0.022    0.023   75.534   75.729
 rs_pw_transfer_PW2RS_30           1414 15.9   11.214   19.809   67.867   73.681
 pw_axpy                          15594 13.0   59.385   69.395   59.385   69.395
 rs_pw_transfer_RS2PW_30           1416 13.0   11.957   20.491   62.166   64.964
 pw_copy                          13465 14.6   58.271   64.759   58.271   64.759
 multiply_cannon                  31927 15.1    2.717    2.928   54.999   63.677
 qs_ot_get_p                       1416 11.9    0.006    0.006   62.065   62.370
 mp_sum_l                         57120 15.3   53.928   61.836   53.928   61.836
 -------------------------------------------------------------------------------

 The number of warnings for this run is : 1
 
 -------------------------------------------------------------------------------
  **** **** ******  **  PROGRAM ENDED AT                 2023-04-08 19:16:11.760
 ***** ** ***  *** **   PROGRAM RAN ON            node154.pri.kelvin2.alces.netw
 **    ****   ******    PROGRAM RAN BY                                  40265864
 ***** **    ** ** **   PROGRAM PROCESS ID                                 15845
  **** **  *******  **  PROGRAM STOPPED IN /mnt/scratch2/users/40265864/MSc_ML_M
                                           M/ln_replacements/xyz/Dy_L18_L20_L20_
                                           MeO_O/geometry_optimisation_2/run-0
