     113
 i =        1, E =      -882.8922261991
 Cl        -2.2849154487        1.6261154156      -13.3188985312
  C        -1.5564955486        1.1628388221      -11.8499733477
  C        -0.4354632529        1.8615248720      -11.3479185287
  C         0.1717960920        1.4959437226      -10.1343799383
  C        -0.2997695327        0.3461724052       -9.3952767918
  C        -1.4493530450       -0.3542047822       -9.9169611351
  C        -2.0635928515        0.0709029946      -11.1075773085
  C         0.3838711984       -0.1113955268       -8.1278408711
  C         0.4645728510        0.8628392859       -7.0656670239
  C        -0.0139637000        2.2117709951       -6.9526478904
  C         0.5048750169        2.7655383566       -5.8121852521
  C         1.3091943622        1.8035491021       -5.1892534591
  N         1.2356006169        0.7020778540       -5.9346532180
 Dy         2.0376704963       -1.1670208253       -5.2562002763
  N         1.3590230303       -2.1893438482       -7.0116903759
  C         0.8570667786       -1.5285944199       -8.1152556181
  C         0.8332714625       -2.5278042675       -9.1504984205
  C         1.1703354514       -3.7598189913       -8.5918721688
  C         1.4736532576       -3.5295608165       -7.2253886363
  C         1.6391801800       -4.4973010817       -6.1838334859
  C         2.0201382267       -4.2652625543       -4.8485001573
  N         2.4899634188       -3.0835102651       -4.4297295644
  C         3.1244042262       -3.2037263636       -3.2644776500
  C         2.9852934540       -4.5358769476       -2.8576651303
  C         2.2780330831       -5.1881880399       -3.8291478285
  C         3.9884775994       -2.2229607073       -2.7002946806
  C         3.9806593267       -0.8334845582       -2.8843740232
  N         3.0798823638       -0.2052134798       -3.6679074548
  C         3.1416921129        1.1356887029       -3.5056868080
  C         2.2490303101        2.0267761354       -4.1264194567
  C         2.3790454723        3.3964892320       -3.6873351235
  C         1.6358657099        3.8356268120       -2.5644422126
  C         1.6940888094        5.1866687858       -2.1961646392
  C         2.4966932937        6.0698687206       -2.9601922019
  C         3.2667913886        5.6261763743       -4.0638420822
  C         3.2032056437        4.2756457723       -4.4335515431
 Cl         2.5495327031        7.7165076382       -2.5272119257
  C         4.1074715506        1.3849764285       -2.5066568393
  C         4.6524121999        0.1606683082       -2.1404104592
  C         5.0273644613       -2.7760818413       -1.8667846491
  C         5.0087003073       -2.6001679639       -0.4645670008
  C         6.0443829924       -3.1581417742        0.2977384496
  C         7.1036763916       -3.8309134772       -0.3605564817
  C         7.1315688803       -3.9867012346       -1.7667495897
  C         6.0759494664       -3.4710516579       -2.5287202217
 Cl         8.3795812676       -4.4652839612        0.5715212688
  C         1.3413271390       -5.8771334147       -6.4824885134
  C        -0.0265787012       -6.2445070563       -6.5717735748
  C        -0.3627761803       -7.5776967872       -6.8317852726
  C         0.6733351194       -8.5234868649       -7.0087178539
  C         2.0412090535       -8.1544559921       -6.9374126422
  C         2.3814252794       -6.8245694973       -6.6474578194
 Cl         0.2669562967      -10.1468595095       -7.3206725987
  O         0.8741049725       -0.7014316547       -3.3666829874
  C         0.0603254296       -1.5758877397       -2.5788998366
  C        -0.8487177697       -2.6283240111       -3.2291950032
  C        -1.0359809919       -2.4096595448       -4.7206714873
  O        -0.2663364357       -1.4990120944       -5.4853668506
  C        -2.1912859029       -3.0955279017       -5.5106167920
  F        -2.5733751894       -4.3229706601       -5.0473159360
  F        -3.1255168075       -2.1517893168       -5.1929843887
  F        -1.9852800788       -3.0688169330       -6.8596174236
  C         0.1043637858       -1.4152795815       -1.0379858543
  C        -0.1236741876       -2.6233147128       -0.1275403715
  C         0.4178208825       -2.0515159498        1.1908999723
  C         0.9956461972       -0.6816912945        0.8007100775
  O         1.2363868306       -0.6455498098       -0.6229558906
  O         4.1244303862       -2.0732747541       -5.7484757213
  C         4.7124146363       -2.2224363817       -7.0217103139
  C         4.6594914368       -1.1534088467       -8.1029621846
  C         4.0470000000        0.1640783340       -7.6509957381
  O         3.4132084036        0.3234142040       -6.3781529688
  C         4.1503962745        1.4661062296       -8.4953128927
  F         4.2601900451        1.2217817532       -9.8316302449
  F         5.3614068878        1.8325931477       -7.9780134768
  F         3.1970294790        2.3847482948       -8.1610058769
  C         5.5177887950       -3.5437356045       -7.2126398978
  F         5.1154136953       -4.5307442582       -6.3586865191
  F         6.6975974326       -2.9705433512       -6.8132666555
  F         5.6368326906       -3.9508033630       -8.5095782056
  H        -0.0507302392        2.7109973911      -11.9156090675
  H         1.0446756613        2.0682954096       -9.8177491579
  H        -1.9038182817       -1.1899442338       -9.3834051398
  H        -2.9435243797       -0.4567727277      -11.4806677353
  H        -0.7119511369        2.7057832322       -7.6160809372
  H         0.3348700987        3.7655104430       -5.4192274844
  H         0.6085900497       -2.3620691428      -10.1954600610
  H         1.2712745778       -4.7334605818       -9.0701398541
  H         3.3115197003       -4.9066722767       -1.8908144685
  H         1.9386156278       -6.2158206078       -3.8267898540
  H         1.0211378453        3.1251010665       -2.0050325484
  H         1.1223403624        5.5404363246       -1.3384485887
  H         3.8908300927        6.3153247572       -4.6341856700
  H         3.7934792714        3.8959568865       -5.2721524343
  H         4.3669072688        2.3722174537       -2.1456096913
  H         5.4819156463       -0.0641339704       -1.4779844407
  H         4.1523647663       -2.1061457196        0.0035707663
  H         6.0287320253       -3.0453965082        1.3809373135
  H         7.9481143167       -4.5185058646       -2.2556583293
  H         6.0912314665       -3.5534714709       -3.6197865395
  H        -0.8084830183       -5.4971623820       -6.4155373585
  H        -1.4105224054       -7.8676837087       -6.9063512439
  H         2.8313781391       -8.8913721263       -7.0845620212
  H         3.4267418873       -6.5075472677       -6.6013781589
  H        -1.7761310460       -2.8038131356       -2.6852515464
  H        -0.8002261754       -0.7904399881       -1.1570118173
  H        -1.1852017611       -2.8793774803       -0.0559778118
  H         0.5096122846       -3.4451198930       -0.4800861920
  H        -0.3947870778       -1.9640333786        1.9235154436
  H         1.2058684909       -2.7079265357        1.5806891635
  H         0.2779498856        0.1014597897        1.0956732696
  H         1.9544643300       -0.5070141011        1.2972869585
  H         5.5866964291       -1.0375395319       -8.6647793941
     113
 i =        2, E =      -883.0666707210
 Cl        -2.2815103832        1.6233915473      -13.3065423807
  C        -1.5459677451        1.1574653656      -11.8296000025
  C        -0.4245140041        1.8761524977      -11.3321671419
  C         0.1745646488        1.5009649031      -10.1207737091
  C        -0.3092507960        0.3450486343       -9.4247232613
  C        -1.4403870468       -0.3734177384       -9.9184623501
  C        -2.0657023125        0.0509559198      -11.0993697521
  C         0.3644419097       -0.1270127765       -8.1631504529
  C         0.4614739456        0.9176375117       -7.1361272686
  C        -0.0841852689        2.2715634142       -7.0210223464
  C         0.4481548104        2.8475114557       -5.8422302676
  C         1.3007557146        1.8431736796       -5.2267372161
  N         1.2152345021        0.7141542606       -5.9977126373
 Dy         2.0539726407       -1.1616737151       -5.2341470622
  N         1.3186423085       -2.1740491207       -7.0565171614
  C         0.8248627853       -1.5408269974       -8.1771469947
  C         0.7885580342       -2.5336119763       -9.2389163683
  C         1.1466588929       -3.7706759108       -8.6769514189
  C         1.4360695608       -3.5232345780       -7.2825886191
  C         1.6236380222       -4.4917701342       -6.2259376694
  C         2.0161037590       -4.3302527615       -4.8396528492
  N         2.4795703101       -3.1198878113       -4.4044145930
  C         3.1521272236       -3.2555544615       -3.2245663816
  C         3.0038833644       -4.6347470784       -2.7871452315
  C         2.2654848708       -5.3037375938       -3.7870303819
  C         4.0069312835       -2.2239818402       -2.6773137826
  C         4.0166934693       -0.7944494309       -2.8231665874
  N         3.1188410368       -0.1786183706       -3.6354404150
  C         3.1628059958        1.1676852072       -3.4376147471
  C         2.2491914030        2.0404136467       -4.1345722167
  C         2.3660550596        3.4492885945       -3.6833754783
  C         1.6307227331        3.8597656169       -2.5439763675
  C         1.6857300862        5.2034561622       -2.1756017381
  C         2.4983375713        6.0764481788       -2.9553382333
  C         3.2777232439        5.6463885326       -4.0698473562
  C         3.2151801750        4.3017025801       -4.4339195187
 Cl         2.5514746084        7.7325930430       -2.5216273397
  C         4.1837067240        1.4515430834       -2.4407315107
  C         4.7402951708        0.2217683244       -2.0768636187
  C         5.0676569763       -2.7936684979       -1.8288942921
  C         5.0238823659       -2.6052196854       -0.4316244204
  C         6.0567565774       -3.1519854270        0.3274141192
  C         7.1082579311       -3.8313851418       -0.3525001766
  C         7.1495577378       -4.0035294848       -1.7650886275
  C         6.0939261436       -3.4953298756       -2.5206388744
 Cl         8.3918388786       -4.4729557893        0.5826898691
  C         1.3294767128       -5.9135155259       -6.5250924328
  C        -0.0457814467       -6.2652632582       -6.5924104845
  C        -0.3837076376       -7.5944315792       -6.8367121372
  C         0.6725567104       -8.5289527497       -7.0143489040
  C         2.0530974436       -8.1756021495       -6.9348285266
  C         2.3870938663       -6.8486991542       -6.6542650219
 Cl         0.2665198175      -10.1636217863       -7.3255327683
  O         0.7502819363       -0.7402477481       -3.2657479209
  C         0.0465887235       -1.6364619792       -2.6590834444
  C        -0.8683050920       -2.4808926442       -3.2840147399
  C        -0.9984583704       -2.4092419711       -4.6546059416
  O        -0.4125084245       -1.5668980144       -5.4261659297
  C        -2.1583700519       -3.0146617062       -5.4709321992
  F        -2.5469567502       -4.2676835777       -5.1152553940
  F        -3.2207528758       -2.1867430654       -5.2583274988
  F        -2.0092372074       -3.0984368510       -6.8192963674
  C         0.0901406785       -1.4197616498       -1.1600365345
  C        -0.1172179693       -2.5686421119       -0.1744393854
  C         0.4182401585       -2.0525420094        1.1757328586
  C         1.0145311214       -0.6755559709        0.8361960478
  O         1.1805286155       -0.6928557989       -0.6109721234
  O         4.2607344483       -2.1339594214       -5.8471936221
  C         4.6702444833       -2.1565746342       -7.0555161998
  C         4.6927009891       -1.1048333788       -7.9703222552
  C         4.0355517806        0.0712485685       -7.6490707969
  O         3.4969587030        0.3775242054       -6.5054730095
  C         4.1762556420        1.3878322934       -8.4295521285
  F         4.2108557407        1.2723773966       -9.7752654074
  F         5.3763567711        1.9229230833       -8.0497590665
  F         3.2320379643        2.3400614452       -8.2081433340
  C         5.5015783288       -3.4451378519       -7.2135070651
  F         5.1571750051       -4.5070800762       -6.4338134375
  F         6.7570207086       -3.0749491615       -6.8095439200
  F         5.6060025148       -3.9787662190       -8.4507140013
  H        -0.0357004786        2.7166842376      -11.9129048342
  H         1.0568587472        2.0555406281       -9.7917396782
  H        -1.8879202570       -1.1970726068       -9.3563968171
  H        -2.9528003721       -0.4666007019      -11.4727024847
  H        -0.7829388555        2.7320746456       -7.7021344663
  H         0.3069471335        3.8367958718       -5.4121360775
  H         0.5821593290       -2.3361231124      -10.2785207536
  H         1.2617266375       -4.7618198134       -9.1177322811
  H         3.3518287945       -4.9608819482       -1.8127663265
  H         1.9156815071       -6.3252381780       -3.8191449945
  H         1.0156758369        3.1280517489       -2.0040409662
  H         1.1121146898        5.5608268612       -1.3200548497
  H         3.9028492859        6.3378053189       -4.6367317610
  H         3.7886977082        3.8990593705       -5.2789356172
  H         4.4131205865        2.4494508045       -2.0970488732
  H         5.5433379185       -0.0424348736       -1.3999456441
  H         4.1574586936       -2.0970689899        0.0109772696
  H         6.0399519118       -3.0548950045        1.4119796856
  H         7.9722456344       -4.5243761008       -2.2573763588
  H         6.0849013008       -3.5543902199       -3.6182705496
  H        -0.8124733084       -5.5017462388       -6.4209358851
  H        -1.4323006335       -7.8857370824       -6.9046603425
  H         2.8405277689       -8.9142721501       -7.0929158114
  H         3.4294679455       -6.5128511963       -6.5974131458
  H        -1.6923098151       -2.9107788360       -2.6907958061
  H        -0.8166552593       -0.7558052860       -1.0770409418
  H        -1.1568298015       -2.9501653381       -0.0921689892
  H         0.4337656490       -3.4809167125       -0.4878591988
  H        -0.3503673865       -1.9879226469        1.9735862651
  H         1.1726507138       -2.7193976751        1.6407698429
  H         0.3169864373        0.1437095010        1.1111594543
  H         1.9756803159       -0.4310154485        1.3199549159
  H         5.4807598566       -1.0859634879       -8.7414402525
     113
 i =        3, E =      -883.1035653661
 Cl        -2.2765660373        1.6219633486      -13.2951759837
  C        -1.5423384036        1.1531530334      -11.8181003748
  C        -0.4261880655        1.8894119630      -11.3353154895
  C         0.1689079023        1.4847846419      -10.1357332308
  C        -0.3121502988        0.3401330606       -9.4317132452
  C        -1.4450437079       -0.3596078733       -9.9301772660
  C        -2.0757551792        0.0396492939      -11.1111545429
  C         0.3689295622       -0.1152574289       -8.1900394574
  C         0.4717019681        0.9165816743       -7.1515922958
  C        -0.0881381443        2.2684924762       -7.0325932945
  C         0.4456536489        2.8538400918       -5.8573437157
  C         1.3292562705        1.8667157097       -5.2490640028
  N         1.1742291856        0.7279880529       -5.9911928364
 Dy         2.0409123672       -1.1268547543       -5.2545904908
  N         1.3163723338       -2.1699743046       -7.0794624595
  C         0.8091106434       -1.5295150323       -8.1829709976
  C         0.7796944747       -2.5330622329       -9.2458176274
  C         1.1465261945       -3.7669632104       -8.6809097989
  C         1.3980291634       -3.5250752652       -7.2729400340
  C         1.6279969039       -4.4936339545       -6.2234449224
  C         2.0661506912       -4.3371835469       -4.8539249930
  N         2.4320901701       -3.1146313311       -4.3703593947
  C         3.1776464499       -3.2677110359       -3.2379809385
  C         2.9932667769       -4.6402277615       -2.7768784579
  C         2.2695121765       -5.3130388663       -3.7848167502
  C         3.9919546023       -2.2283177476       -2.6510579934
  C         3.9947061857       -0.7979696087       -2.7874418931
  N         3.1654072871       -0.1676895743       -3.6451041753
  C         3.1531092539        1.1685343277       -3.4250858736
  C         2.2535564038        2.0449635849       -4.1375639304
  C         2.3560528039        3.4538627249       -3.6905460266
  C         1.6273163226        3.8729919908       -2.5549198192
  C         1.6931334392        5.2132874336       -2.1775604738
  C         2.5027946988        6.0998850201       -2.9458914553
  C         3.2750718733        5.6556720102       -4.0595537279
  C         3.2076127736        4.3127474358       -4.4243187606
 Cl         2.5529466490        7.7583969991       -2.5143406999
  C         4.1936702903        1.4552112703       -2.4365632955
  C         4.7581550573        0.2256807639       -2.0789243643
  C         5.0742427598       -2.7858583513       -1.8294090632
  C         5.0291397325       -2.6303405133       -0.4318530950
  C         6.0689237739       -3.1545494595        0.3322097066
  C         7.1257938329       -3.8386929531       -0.3348941091
  C         7.1535871649       -4.0135964117       -1.7482837460
  C         6.1102488428       -3.4814874882       -2.5013309222
 Cl         8.4118317603       -4.4839074153        0.5972699185
  C         1.3249009731       -5.9054627863       -6.5494747450
  C        -0.0413970454       -6.2773876010       -6.6048712456
  C        -0.3802246332       -7.6067682700       -6.8432543496
  C         0.6697022968       -8.5502093135       -7.0183714038
  C         2.0459844958       -8.1834471121       -6.9305129439
  C         2.3710231304       -6.8500602388       -6.6761738444
 Cl         0.2630969994      -10.1862430851       -7.3323213886
  O         0.6992204693       -0.7791148993       -3.3006095762
  C         0.0537421051       -1.6029387713       -2.6066399489
  C        -0.8451765527       -2.4691050216       -3.2959540240
  C        -1.0530786759       -2.3756597499       -4.7028628559
  O        -0.3872107489       -1.5483286784       -5.3609517519
  C        -2.2376235162       -3.0264020654       -5.4543051281
  F        -2.5407759133       -4.2993609137       -5.0803837074
  F        -3.2744177442       -2.1649413847       -5.2760132773
  F        -1.9532450757       -3.0897484901       -6.7891726996
  C         0.0306524167       -1.4326847416       -1.0987412901
  C        -0.1204312760       -2.6264701592       -0.1425298642
  C         0.4219973241       -2.0584123715        1.1974957622
  C         1.0069300793       -0.6787174311        0.8210852927
  O         1.1708803847       -0.7008695413       -0.6357192210
  O         4.2243940542       -2.0865526467       -5.8754584391
  C         4.7215553892       -2.1981454215       -7.0137889722
  C         4.6624441173       -1.0964421589       -7.9326149915
  C         4.0355373876        0.1411521960       -7.6408084006
  O         3.5388161011        0.2971970052       -6.5051210088
  C         4.2331173382        1.4131906343       -8.4839043813
  F         4.2184581257        1.2103427437       -9.8230268494
  F         5.3986462596        1.9774130564       -8.0515449022
  F         3.2334981329        2.2917252406       -8.1553898454
  C         5.5752757915       -3.4633067126       -7.2505448762
  F         5.1021527681       -4.4576446823       -6.4367877985
  F         6.8033997658       -3.0758394604       -6.7905231060
  F         5.5991872672       -3.9387135908       -8.5152191418
  H        -0.0265755441        2.7255948756      -11.9133852517
  H         1.0437041951        2.0358311489       -9.7767582487
  H        -1.8647432368       -1.1904522850       -9.3550657518
  H        -2.9668068431       -0.4746384478      -11.4747710358
  H        -0.7925411484        2.7342459846       -7.7124303466
  H         0.2798080654        3.8425065238       -5.4366740372
  H         0.5703659650       -2.3362801665      -10.2914185832
  H         1.2450870999       -4.7422519374       -9.1530847251
  H         3.3523378129       -5.0009454261       -1.8183786428
  H         1.9235513170       -6.3414432128       -3.7998762535
  H         1.0207646278        3.1426658488       -2.0064272702
  H         1.1207869247        5.5788712228       -1.3235072397
  H         3.8984531239        6.3517887060       -4.6229976061
  H         3.7784582763        3.9109352969       -5.2708581531
  H         4.4378461915        2.4492350073       -2.0780398115
  H         5.5525273036       -0.0005833382       -1.3766252210
  H         4.1811180892       -2.0977424509        0.0145479541
  H         6.0614964651       -3.0660875947        1.4185613738
  H         7.9830309788       -4.5252993747       -2.2402945984
  H         6.0806155362       -3.5622599100       -3.5959125677
  H        -0.8088524156       -5.5158716502       -6.4343535685
  H        -1.4279635807       -7.9062467248       -6.9025163419
  H         2.8282169163       -8.9271754606       -7.0940636661
  H         3.4144395814       -6.5231961393       -6.5951672665
  H        -1.6369103811       -2.9724027981       -2.6969356310
  H        -0.8413195432       -0.7290583267       -1.0508764688
  H        -1.1751887355       -2.9260691290       -0.1022832382
  H         0.4601172240       -3.4886311035       -0.5070445397
  H        -0.3670267819       -1.9696254329        1.9577464024
  H         1.1864468443       -2.7290877234        1.6154919069
  H         0.3167896640        0.1469433383        1.0936893131
  H         1.9749246924       -0.4380114457        1.2902654045
  H         5.3974402286       -1.1164737276       -8.7752465917
     113
 i =        4, E =      -883.1365346565
 Cl        -2.2797856591        1.6268450186      -13.3003179044
  C        -1.5487290099        1.1532682563      -11.8230160895
  C        -0.4301849254        1.8833146466      -11.3402491149
  C         0.1648012417        1.4815254419      -10.1422619054
  C        -0.3101214870        0.3378999778       -9.4365578250
  C        -1.4443387781       -0.3593737978       -9.9359951715
  C        -2.0770255578        0.0424214933      -11.1131206186
  C         0.3674825959       -0.1041509748       -8.2046518349
  C         0.4606230213        0.9063818309       -7.1459956141
  C        -0.0777364576        2.2662678844       -7.0417567250
  C         0.4644083550        2.8544992204       -5.8814278433
  C         1.3264199807        1.8694152239       -5.2470221732
  N         1.1866093790        0.7397017922       -6.0047108116
 Dy         2.0757901336       -1.0988286153       -5.2681222370
  N         1.2952377791       -2.1634364536       -7.0741845312
  C         0.8096736056       -1.5135704740       -8.1798066515
  C         0.7747303065       -2.5266154919       -9.2418806844
  C         1.1239873914       -3.7600324272       -8.6719419958
  C         1.3911686550       -3.5201125085       -7.2643532482
  C         1.6309330706       -4.4960668154       -6.2209059690
  C         2.0594545336       -4.3276211147       -4.8561491786
  N         2.4400019759       -3.1131164092       -4.3691701119
  C         3.1477667569       -3.2539364304       -3.2160172335
  C         3.0072520292       -4.6432490935       -2.7927454561
  C         2.2935860766       -5.3105321068       -3.8007295566
  C         3.9887292272       -2.2344820711       -2.6379069792
  C         4.0027498606       -0.8078921261       -2.7867837560
  N         3.1616558298       -0.1663039042       -3.6196227316
  C         3.1681037417        1.1750301577       -3.4538127349
  C         2.2559227019        2.0509658725       -4.1471134395
  C         2.3540721176        3.4518466373       -3.6926555613
  C         1.6234109233        3.8870993562       -2.5676051759
  C         1.6974731780        5.2264112355       -2.1801267955
  C         2.5065558889        6.1210257024       -2.9377130936
  C         3.2735857020        5.6675672838       -4.0488221374
  C         3.1961151970        4.3246915266       -4.4163817782
 Cl         2.5548014390        7.7803500580       -2.5071952960
  C         4.1879057314        1.4524745106       -2.4377348919
  C         4.7419922059        0.2253417931       -2.0642354922
  C         5.0715703939       -2.7862628197       -1.8235739328
  C         5.0446370135       -2.6374756457       -0.4259210264
  C         6.0821591659       -3.1701523439        0.3388907238
  C         7.1452616834       -3.8505639341       -0.3201574750
  C         7.1624097476       -4.0111053749       -1.7338357697
  C         6.1177600410       -3.4729165687       -2.4829641067
 Cl         8.4319477911       -4.4939687907        0.6133055383
  C         1.3236116707       -5.8989434297       -6.5592874924
  C        -0.0358260755       -6.2843845259       -6.6276923685
  C        -0.3762454066       -7.6184879385       -6.8484299704
  C         0.6653983407       -8.5709218623       -7.0206726523
  C         2.0366105709       -8.1915154083       -6.9383009236
  C         2.3572997538       -6.8551820472       -6.6888569338
 Cl         0.2605737533      -10.2071537122       -7.3385225621
  O         0.7519394700       -0.7665707686       -3.2904576558
  C         0.0166407942       -1.5785355364       -2.6244436148
  C        -0.8921100211       -2.5332848942       -3.2478215273
  C        -1.0619330192       -2.3182911017       -4.6792472569
  O        -0.3562663612       -1.5412328143       -5.4041039573
  C        -2.2390646787       -3.0171877602       -5.4451509442
  F        -2.5605963658       -4.2703999105       -5.0252497772
  F        -3.3112526164       -2.1875722478       -5.2946840134
  F        -1.9206223426       -3.0789680754       -6.7789464594
  C         0.0076132582       -1.4199808980       -1.0931411545
  C        -0.1335627246       -2.6363987086       -0.1491192742
  C         0.4191173510       -2.0733302770        1.2006202281
  C         0.9996002914       -0.6849902935        0.8249696069
  O         1.1690460353       -0.7032118077       -0.6348887861
  O         4.1928345381       -2.1309013559       -5.8442510485
  C         4.7108533139       -2.1632806711       -6.9961113597
  C         4.6918668420       -1.1246016938       -8.0205039450
  C         4.0875720514        0.1276049658       -7.5983026944
  O         3.4881515940        0.3231024300       -6.4872736247
  C         4.2488009747        1.4086236908       -8.4686278075
  F         4.2550191857        1.1844033980       -9.8050813167
  F         5.4285043617        2.0050868357       -8.1067460164
  F         3.2304563833        2.2756491131       -8.1534951115
  C         5.5796424454       -3.4253354541       -7.2507699522
  F         5.0928131797       -4.4355195407       -6.4610519526
  F         6.8524925197       -3.1136339962       -6.8363867576
  F         5.6312827269       -3.9015585960       -8.5140621204
  H        -0.0287090715        2.7246697237      -11.9081887647
  H         1.0389913577        2.0231361610       -9.7645022369
  H        -1.8521288742       -1.1925361222       -9.3549494558
  H        -2.9667023796       -0.4727872388      -11.4772401922
  H        -0.7947424823        2.7360435140       -7.7144510394
  H         0.2520614158        3.8399508322       -5.4693599092
  H         0.5608719051       -2.3432989978      -10.2948755317
  H         1.2291089891       -4.7167211430       -9.1825361013
  H         3.3451493465       -5.0350619136       -1.8352133763
  H         1.9388103656       -6.3413581339       -3.7825526945
  H         1.0234647097        3.1624439604       -2.0083239694
  H         1.1300710797        5.5960829906       -1.3238636370
  H         3.8957819748        6.3665987747       -4.6101629990
  H         3.7697030173        3.9286882739       -5.2615343857
  H         4.4604155559        2.4382201190       -2.0641735162
  H         5.5533946187        0.0423810624       -1.3647212517
  H         4.2018683527       -2.1032176396        0.0246697827
  H         6.0830163230       -3.0737565744        1.4250629662
  H         7.9907184041       -4.5297502475       -2.2203426177
  H         6.0853018463       -3.5700195999       -3.5741884199
  H        -0.8094625676       -5.5326278035       -6.4506039163
  H        -1.4225072524       -7.9271583645       -6.8996635696
  H         2.8173379179       -8.9393461195       -7.0905813736
  H         3.4009937442       -6.5350918993       -6.5984164492
  H        -1.6595861961       -3.0459846996       -2.6589073627
  H        -0.8679122263       -0.7287125185       -1.0082106586
  H        -1.1869881802       -2.9215529812       -0.0907152012
  H         0.4719248250       -3.4781706526       -0.5097937210
  H        -0.3771639203       -1.9541407450        1.9425410328
  H         1.2000938876       -2.7298732824        1.5982351014
  H         0.3071875394        0.1424056322        1.0715443108
  H         1.9843637448       -0.4554733825        1.2578521080
  H         5.4050669647       -1.1303047118       -8.8532257174
     113
 i =        5, E =      -883.1539599224
 Cl        -2.2868196403        1.6328637003      -13.3091280984
  C        -1.5546059145        1.1554105332      -11.8321636534
  C        -0.4299663951        1.8713674392      -11.3400710677
  C         0.1610983862        1.4925469347      -10.1328659270
  C        -0.3077247547        0.3371764953       -9.4389408731