 DBCSR| Multiplication driver                                               XSMM
 DBCSR| Multrec recursion limit                                              512
 DBCSR| Multiplication stack size                                           1000
 DBCSR| Maximum elements for images                                    UNLIMITED
 DBCSR| Multiplicative factor virtual images                                   1
 DBCSR| Randmat seed                                                    12341313
 DBCSR| Multiplication size stacks                                             3
 DBCSR| Number of 3D layers                                               SINGLE
 DBCSR| Use MPI memory allocation                                              T
 DBCSR| Use RMA algorithm                                                      F
 DBCSR| Use Communication thread                                               T
 DBCSR| Communication thread load                                             87


  **** **** ******  **  PROGRAM STARTED AT               2023-04-08 04:47:12.584
 ***** ** ***  *** **   PROGRAM STARTED ON        node145.pri.kelvin2.alces.netw
 **    ****   ******    PROGRAM STARTED BY                              40265864
 ***** **    ** ** **   PROGRAM PROCESS ID                                100022
  **** **  *******  **  PROGRAM STARTED IN /mnt/scratch2/users/40265864/MSc_ML_M
                                           M/ln_replacements/xyz/Dy_L10_L19_L21/
                                           geometry_optimisation_2/run-0

 CP2K| version string:                                          CP2K version 4.1
 CP2K| source code revision number:                                    svn:17462
 CP2K| cp2kflags: libint fftw3 libxc parallel mpi3 scalapack libxsmm libderiv_ma
 CP2K|            x_am1=5 libint_max_am=6
 CP2K| is freely available from                            https://www.cp2k.org/
 CP2K| Program compiled at                          Mon 24 Oct 18:14:20 BST 2022
 CP2K| Program compiled on                      login1.pri.kelvin2.alces.network
 CP2K| Program compiled for                                                local
 CP2K| Data directory path                      /users/40265864/source/cp2k/data
 CP2K| Input file name                                         geo-opt-relax.inp

 GLOBAL| Force Environment number                                              1
 GLOBAL| Basis set file name                                 ../BASIS_MOLOPT_UCL
 GLOBAL| Potential file name                                        ../POTENTIAL
 GLOBAL| MM Potential file name                                     MM_POTENTIAL
 GLOBAL| Coordinate file name                           ../../Dy_L10_L19_L21.xyz
 GLOBAL| Method name                                                        CP2K
 GLOBAL| Project name                                                 dy_complex
 GLOBAL| Preferred FFT library                                             FFTW3
 GLOBAL| Preferred diagonalization lib.                                       SL
 GLOBAL| Run type                                                        GEO_OPT
 GLOBAL| All-to-all communication in single precision                          F
 GLOBAL| FFTs using library dependent lengths                                  F
 GLOBAL| Global print level                                                  LOW
 GLOBAL| Total number of message passing processes                           121
 GLOBAL| Number of threads for this process                                    1
 GLOBAL| This output is from process                                           0
 GLOBAL| CPU model name :  AMD EPYC 7702 64-Core Processor

 MEMORY| system memory details [Kb]
 MEMORY|                        rank 0           min           max       average
 MEMORY| MemTotal            792056772     792056772     792056772     792056772
 MEMORY| MemFree             679253152     679253152     679253656     679253622
 MEMORY| Buffers                351832        351832        351832        351832
 MEMORY| Cached               32418536      32418536      32418536      32418536
 MEMORY| Slab                 65847420      65847420      65847420      65847420
 MEMORY| SReclaimable         64208456      64208456      64208456      64208456
 MEMORY| MemLikelyFree       776231976     776231976     776232480     776232446


 GENERATE|  Preliminary Number of Bonds generated:                             0
 GENERATE|  Achieved consistency in connectivity generation.

 *******************************************************************************
 *******************************************************************************
 **                                                                           **
 **     #####                         ##              ##                      **
 **    ##   ##            ##          ##              ##                      **
 **   ##     ##                       ##            ######                    **
 **   ##     ##  ##   ##  ##   #####  ##  ##   ####   ##    #####    #####    **
 **   ##     ##  ##   ##  ##  ##      ## ##   ##      ##   ##   ##  ##   ##   **
 **   ##  ## ##  ##   ##  ##  ##      ####     ###    ##   ######   ######    **
 **    ##  ###   ##   ##  ##  ##      ## ##      ##   ##   ##       ##        **
 **     #######   #####   ##   #####  ##  ##  ####    ##    #####   ##        **
 **           ##                                                    ##        **
 **                                                                           **
 **                                                ... make the atoms dance   **
 **                                                                           **
 **            Copyright (C) by CP2K developers group (2000 - 2016)           **
 **                                                                           **
 *******************************************************************************


 SCF PARAMETERS         Density guess:                                   RESTART
                        --------------------------------------------------------
                        max_scf:                                             200
                        max_scf_history:                                       0
                        max_diis:                                              4
                        --------------------------------------------------------
                        eps_scf:                                        5.00E-05
                        eps_scf_history:                                0.00E+00
                        eps_diis:                                       1.00E-01
                        eps_eigval:                                     1.00E-05
                        --------------------------------------------------------
                        level_shift [a.u.]:                                 0.00
                        --------------------------------------------------------
                        No outer SCF

 *******************************************************************************
 ***                     STARTING GEOMETRY OPTIMIZATION                      ***
 ***                                   BFGS                                  ***
 *******************************************************************************

 Spin 1

 Number of electrons:                                                        210
 Number of occupied orbitals:                                                210
 Number of molecular orbitals:                                               210

 Spin 2

 Number of electrons:                                                        209
 Number of occupied orbitals:                                                209
 Number of molecular orbitals:                                               209

 Number of orbital functions:                                               1234
 Number of independent orbital functions:                                   1234

 Extrapolation method: initial_guess

 *** WARNING in qs_initial_guess.F:262 :: User requested to restart the   ***
 *** wavefunction from the file named: dy_complex-RESTART.wfn. This file  ***
 *** does not exist. Please check the existence of the file or change     ***
 *** properly the value of the keyword WFN_RESTART_FILE_NAME. Calculation ***
 *** continues using ATOMIC GUESS.                                        ***



 SCF WAVEFUNCTION OPTIMIZATION

  ----------------------------------- OT ---------------------------------------
  Minimizer      : DIIS                : direct inversion
                                         in the iterative subspace
                                         using   7 DIIS vectors
                                         safer DIIS on
  Preconditioner : FULL_SINGLE_INVERSE : inversion of 
                                         H + eS - 2*(Sc)(c^T*H*c+const)(Sc)^T
  Precond_solver : DEFAULT
  stepsize       :    0.08000000                  energy_gap     :    0.08000000
  eps_taylor     :   0.10000E-15                  max_taylor     :             4
  ----------------------------------- OT ---------------------------------------

  Step     Update method      Time    Convergence         Total energy    Change
  ------------------------------------------------------------------------------
     1 OT DIIS     0.80E-01    3.1     0.01698840      -845.6352178454 -8.46E+02
     2 OT DIIS     0.80E-01    4.0     0.01219013      -855.4738751348 -9.84E+00
     3 OT DIIS     0.80E-01    4.0     0.00973879      -862.7209010551 -7.25E+00
     4 OT DIIS     0.80E-01   15.5     0.00692993      -870.9058163837 -8.18E+00
     5 OT DIIS     0.80E-01    4.0     0.00469131      -876.2173481734 -5.31E+00
     6 OT DIIS     0.80E-01    4.0     0.00397195      -878.0560278558 -1.84E+00
     7 OT DIIS     0.80E-01    4.1     0.00274753      -879.3477278831 -1.29E+00
     8 OT DIIS     0.80E-01    4.0     0.00201269      -880.4638410807 -1.12E+00
     9 OT DIIS     0.80E-01    4.0     0.00159820      -880.9698490072 -5.06E-01
    10 OT DIIS     0.80E-01    4.0     0.00130216      -881.2700356253 -3.00E-01
    11 OT DIIS     0.80E-01    4.0     0.00105085      -881.5365651612 -2.67E-01
    12 OT DIIS     0.80E-01    4.0     0.00082931      -881.7711653880 -2.35E-01
    13 OT DIIS     0.80E-01    4.0     0.00070009      -881.8894430193 -1.18E-01
    14 OT DIIS     0.80E-01    4.0     0.00062627      -882.0054486096 -1.16E-01
    15 OT DIIS     0.80E-01    4.0     0.00051419      -882.0501593914 -4.47E-02
    16 OT DIIS     0.80E-01    4.0     0.00049720      -882.0789363088 -2.88E-02
    17 OT DIIS     0.80E-01    4.0     0.00041443      -882.1397527977 -6.08E-02
    18 OT DIIS     0.80E-01    4.0     0.00034711      -882.1928989324 -5.31E-02
    19 OT DIIS     0.80E-01    4.0     0.00032866      -882.2117560646 -1.89E-02
    20 OT DIIS     0.80E-01    4.0     0.00029696      -882.2534208462 -4.17E-02
    21 OT DIIS     0.80E-01    4.0     0.00027706      -882.2648021841 -1.14E-02
    22 OT DIIS     0.80E-01    4.0     0.00025659      -882.2882066838 -2.34E-02
    23 OT DIIS     0.80E-01    4.0     0.00025110      -882.2956366907 -7.43E-03
    24 OT DIIS     0.80E-01    4.0     0.00024080      -882.3132582334 -1.76E-02
    25 OT DIIS     0.80E-01    4.1     0.00022931      -882.3264301224 -1.32E-02
    26 OT DIIS     0.80E-01    4.0     0.00021638      -882.3463283706 -1.99E-02
    27 OT DIIS     0.80E-01    4.0     0.00021105      -882.3532873256 -6.96E-03
    28 OT DIIS     0.80E-01    4.1     0.00019938      -882.3720443454 -1.88E-02
    29 OT DIIS     0.80E-01    4.1     0.00019632      -882.3761242148 -4.08E-03
    30 OT SD       0.80E-01    4.1     0.00018732      -882.3950898005 -1.90E-02
    31 OT DIIS     0.80E-01    4.0     0.00018490      -882.3965306234 -1.44E-03
    32 OT DIIS     0.80E-01    4.0     0.00017372      -882.4134199643 -1.69E-02
    33 OT DIIS     0.80E-01    4.0     0.00016926      -882.4235359935 -1.01E-02
    34 OT SD       0.80E-01    4.0     0.00017461      -882.4237487755 -2.13E-04
    35 OT DIIS     0.80E-01    4.0     0.00017307      -882.4250035973 -1.25E-03
    36 OT DIIS     0.80E-01    4.0     0.00017199      -882.4251640386 -1.60E-04
    37 OT DIIS     0.80E-01    4.0     0.00016533      -882.4275949058 -2.43E-03
    38 OT DIIS     0.80E-01   17.4     0.00016418      -882.4282448492 -6.50E-04
    39 OT DIIS     0.80E-01   18.9     0.00016162      -882.4306457317 -2.40E-03
    40 OT DIIS     0.80E-01   18.9     0.00015887      -882.4330194665 -2.37E-03
    41 OT DIIS     0.80E-01   18.0     0.00015761      -882.4339980284 -9.79E-04
    42 OT DIIS     0.80E-01    4.0     0.00015441      -882.4404369898 -6.44E-03
    43 OT DIIS     0.80E-01    4.2     0.00015218      -882.4466623170 -6.23E-03
    44 OT DIIS     0.80E-01    4.0     0.00014922      -882.4550088915 -8.35E-03
    45 OT DIIS     0.80E-01    4.0     0.00014751      -882.4595841647 -4.58E-03
    46 OT DIIS     0.80E-01    4.0     0.00014309      -882.4695872525 -1.00E-02
    47 OT DIIS     0.80E-01    4.0     0.00013672      -882.4813027207 -1.17E-02
    48 OT DIIS     0.80E-01    4.0     0.00013174      -882.4873441019 -6.04E-03
    49 OT DIIS     0.80E-01    4.0     0.00013758      -882.4891704387 -1.83E-03
    50 OT DIIS     0.80E-01    4.0     0.00012198      -882.4978322716 -8.66E-03
    51 OT DIIS     0.80E-01    4.0     0.00011032      -882.5071568722 -9.32E-03
    52 OT DIIS     0.80E-01    4.0     0.00010585      -882.5104952505 -3.34E-03
    53 OT DIIS     0.80E-01    4.0     0.00010770      -882.5133261446 -2.83E-03
    54 OT DIIS     0.80E-01    4.0     0.00010106      -882.5147235457 -1.40E-03
    55 OT SD       0.80E-01    4.0     0.00010183      -882.5160568209 -1.33E-03
    56 OT DIIS     0.80E-01    4.0     0.00009943      -882.5164798229 -4.23E-04
    57 OT DIIS     0.80E-01    4.0     0.00009228      -882.5223016616 -5.82E-03
    58 OT DIIS     0.80E-01    9.9     0.00009027      -882.5249517475 -2.65E-03
    59 OT DIIS     0.80E-01    4.1     0.00008848      -882.5268052578 -1.85E-03
    60 OT DIIS     0.80E-01    4.1     0.00008664      -882.5303924111 -3.59E-03
    61 OT DIIS     0.80E-01    4.1     0.00008610      -882.5311213413 -7.29E-04
    62 OT SD       0.80E-01    4.1     0.00008559      -882.5333735295 -2.25E-03
    63 OT DIIS     0.80E-01    4.1     0.00008555      -882.5336764260 -3.03E-04
    64 OT SD       0.80E-01    4.1     0.00008577      -882.5348743572 -1.20E-03
    65 OT SD       0.80E-01    4.1     0.00008571      -882.5351784894 -3.04E-04
    66 OT SD       0.80E-01    4.1     0.00008572      -882.5354823686 -3.04E-04
    67 OT SD       0.80E-01    4.1     0.00008576      -882.5357863868 -3.04E-04
    68 OT SD       0.80E-01    4.1     0.00008581      -882.5360907059 -3.04E-04
    69 OT SD       0.80E-01    4.1     0.00008587      -882.5363954093 -3.05E-04
    70 OT SD       0.80E-01    4.0     0.00008594      -882.5367005493 -3.05E-04
    71 OT SD       0.80E-01    4.0     0.00008601      -882.5370061636 -3.06E-04
    72 OT SD       0.80E-01    4.0     0.00008608      -882.5373122830 -3.06E-04
    73 OT SD       0.80E-01    4.0     0.00008616      -882.5376189334 -3.07E-04
    74 OT SD       0.80E-01    4.0     0.00008624      -882.5379261378 -3.07E-04
    75 OT SD       0.80E-01    4.0     0.00008632      -882.5382339170 -3.08E-04
    76 OT SD       0.80E-01    4.0     0.00008641      -882.5385422901 -3.08E-04
    77 OT SD       0.80E-01    4.0     0.00008649      -882.5388512744 -3.09E-04
    78 OT SD       0.80E-01    4.0     0.00008658      -882.5391608863 -3.10E-04
    79 OT SD       0.80E-01    4.0     0.00008667      -882.5394711410 -3.10E-04
    80 OT SD       0.80E-01    4.0     0.00008677      -882.5397820525 -3.11E-04
    81 OT SD       0.80E-01    4.0     0.00008686      -882.5400936339 -3.12E-04
    82 OT SD       0.80E-01    4.0     0.00008696      -882.5404058976 -3.12E-04
    83 OT SD       0.80E-01    4.0     0.00008706      -882.5407188548 -3.13E-04
    84 OT SD       0.80E-01    4.0     0.00008715      -882.5410325162 -3.14E-04
    85 OT SD       0.80E-01    4.0     0.00008725      -882.5413468918 -3.14E-04
    86 OT SD       0.80E-01    4.0     0.00008736      -882.5416619906 -3.15E-04
    87 OT SD       0.80E-01    4.0     0.00008746      -882.5419778213 -3.16E-04
    88 OT SD       0.80E-01    4.0     0.00008756      -882.5422943916 -3.17E-04
    89 OT SD       0.80E-01    4.0     0.00008766      -882.5426117088 -3.17E-04
    90 OT SD       0.80E-01    4.0     0.00008777      -882.5429297798 -3.18E-04
    91 OT SD       0.80E-01    4.0     0.00008787      -882.5432486106 -3.19E-04
    92 OT SD       0.80E-01    4.0     0.00008798      -882.5435682069 -3.20E-04
    93 OT SD       0.80E-01    4.0     0.00008809      -882.5438885740 -3.20E-04
    94 OT SD       0.80E-01    4.0     0.00008819      -882.5442097166 -3.21E-04
    95 OT SD       0.80E-01    4.0     0.00008830      -882.5445316391 -3.22E-04
    96 OT SD       0.80E-01    4.0     0.00008841      -882.5448543455 -3.23E-04
    97 OT SD       0.80E-01    4.0     0.00008852      -882.5451778394 -3.23E-04
    98 OT SD       0.80E-01    4.0     0.00008862      -882.5455021242 -3.24E-04
    99 OT SD       0.80E-01    4.0     0.00008873      -882.5458272030 -3.25E-04
   100 OT SD       0.80E-01    4.0     0.00008884      -882.5461530786 -3.26E-04
   101 OT SD       0.80E-01    4.0     0.00008895      -882.5464797536 -3.27E-04
   102 OT SD       0.80E-01    4.0     0.00008906      -882.5468072305 -3.27E-04
   103 OT SD       0.80E-01    4.0     0.00008917      -882.5471355116 -3.28E-04
   104 OT SD       0.80E-01    4.0     0.00008928      -882.5474645992 -3.29E-04
   105 OT SD       0.80E-01    4.0     0.00008939      -882.5477944953 -3.30E-04
   106 OT SD       0.80E-01    4.0     0.00008950      -882.5481252023 -3.31E-04
   107 OT SD       0.80E-01    4.0     0.00008961      -882.5484567221 -3.32E-04
   108 OT SD       0.80E-01    4.0     0.00008972      -882.5487890572 -3.32E-04
   109 OT SD       0.80E-01    4.0     0.00008983      -882.5491222098 -3.33E-04
   110 OT SD       0.80E-01    4.0     0.00008994      -882.5494561824 -3.34E-04
   111 OT SD       0.80E-01    4.0     0.00009005      -882.5497909778 -3.35E-04
   112 OT SD       0.80E-01    4.0     0.00009016      -882.5501265987 -3.36E-04
   113 OT SD       0.80E-01    4.0     0.00009027      -882.5504630483 -3.36E-04
   114 OT SD       0.80E-01    4.0     0.00009038      -882.5508003302 -3.37E-04
   115 OT SD       0.80E-01    4.0     0.00009050      -882.5511384481 -3.38E-04
   116 OT SD       0.80E-01    4.0     0.00009061      -882.5514774061 -3.39E-04
   117 OT SD       0.80E-01    4.0     0.00009072      -882.5518172090 -3.40E-04
   118 OT SD       0.80E-01    4.0     0.00009084      -882.5521578618 -3.41E-04
   119 OT SD       0.80E-01    4.0     0.00009095      -882.5524993702 -3.42E-04
   120 OT SD       0.80E-01    4.0     0.00009106      -882.5528417403 -3.42E-04
   121 OT SD       0.80E-01    4.0     0.00009118      -882.5531849789 -3.43E-04
   122 OT SD       0.80E-01    4.0     0.00009130      -882.5535290934 -3.44E-04
   123 OT SD       0.80E-01    4.0     0.00009142      -882.5538740918 -3.45E-04
   124 OT SD       0.80E-01    4.0     0.00009153      -882.5542199830 -3.46E-04
   125 OT SD       0.80E-01    4.0     0.00009165      -882.5545667764 -3.47E-04
   126 OT SD       0.80E-01    4.0     0.00009178      -882.5549144823 -3.48E-04
   127 OT SD       0.80E-01    4.0     0.00009190      -882.5552631119 -3.49E-04
   128 OT SD       0.80E-01    4.0     0.00009202      -882.5556126771 -3.50E-04
   129 OT SD       0.80E-01    4.0     0.00009215      -882.5559631907 -3.51E-04
   130 OT SD       0.80E-01    4.0     0.00009228      -882.5563146664 -3.51E-04
   131 OT SD       0.80E-01    4.0     0.00009241      -882.5566671189 -3.52E-04
   132 OT SD       0.80E-01    4.0     0.00009254      -882.5570205638 -3.53E-04
   133 OT SD       0.80E-01    4.0     0.00009267      -882.5573750175 -3.54E-04
   134 OT SD       0.80E-01    4.0     0.00009281      -882.5577304978 -3.55E-04
   135 OT SD       0.80E-01    4.0     0.00009294      -882.5580870231 -3.57E-04
   136 OT SD       0.80E-01    4.0     0.00009308      -882.5584446130 -3.58E-04
   137 OT SD       0.80E-01    4.0     0.00009323      -882.5588032882 -3.59E-04
   138 OT SD       0.80E-01    4.0     0.00009337      -882.5591630702 -3.60E-04
   139 OT SD       0.80E-01    4.0     0.00009352      -882.5595239819 -3.61E-04
   140 OT SD       0.80E-01    4.0     0.00009367      -882.5598860468 -3.62E-04
   141 OT SD       0.80E-01    4.0     0.00009383      -882.5602492899 -3.63E-04
   142 OT SD       0.80E-01    4.0     0.00009398      -882.5606137370 -3.64E-04
   143 OT SD       0.80E-01    4.0     0.00009415      -882.5609794148 -3.66E-04
   144 OT SD       0.80E-01    4.0     0.00009431      -882.5613463512 -3.67E-04
   145 OT SD       0.80E-01    4.0     0.00009448      -882.5617145751 -3.68E-04
   146 OT SD       0.80E-01    4.0     0.00009465      -882.5620841163 -3.70E-04
   147 OT SD       0.80E-01    4.0     0.00009482      -882.5624550056 -3.71E-04
   148 OT SD       0.80E-01    4.0     0.00009500      -882.5628272747 -3.72E-04
   149 OT SD       0.80E-01    4.0     0.00009519      -882.5632009560 -3.74E-04
   150 OT SD       0.80E-01    4.0     0.00009537      -882.5635760829 -3.75E-04
   151 OT SD       0.80E-01    4.0     0.00009556      -882.5639526897 -3.77E-04
   152 OT SD       0.80E-01    4.0     0.00009576      -882.5643308111 -3.78E-04
   153 OT SD       0.80E-01    4.0     0.00009596      -882.5647104828 -3.80E-04
   154 OT SD       0.80E-01    4.0     0.00009616      -882.5650917408 -3.81E-04
   155 OT SD       0.80E-01    4.0     0.00009637      -882.5654746220 -3.83E-04
   156 OT SD       0.80E-01    4.0     0.00009658      -882.5658591633 -3.85E-04
   157 OT SD       0.80E-01    4.0     0.00009679      -882.5662454023 -3.86E-04
   158 OT SD       0.80E-01    4.0     0.00009701      -882.5666333769 -3.88E-04
   159 OT SD       0.80E-01    4.0     0.00009724      -882.5670231249 -3.90E-04
   160 OT SD       0.80E-01    4.0     0.00009747      -882.5674146845 -3.92E-04
   161 OT SD       0.80E-01    4.0     0.00009770      -882.5678080937 -3.93E-04
   162 OT SD       0.80E-01    4.0     0.00009794      -882.5682033903 -3.95E-04
   163 OT SD       0.80E-01    4.0     0.00009818      -882.5686006120 -3.97E-04
   164 OT SD       0.80E-01    4.0     0.00009842      -882.5689997959 -3.99E-04
   165 OT SD       0.80E-01    4.0     0.00009867      -882.5694009788 -4.01E-04
   166 OT SD       0.80E-01    4.0     0.00009892      -882.5698041967 -4.03E-04
   167 OT SD       0.80E-01    4.0     0.00009918      -882.5702094847 -4.05E-04
   168 OT SD       0.80E-01    4.0     0.00009944      -882.5706168770 -4.07E-04
   169 OT SD       0.80E-01    4.0     0.00009970      -882.5710264068 -4.10E-04
   170 OT SD       0.80E-01    4.0     0.00009996      -882.5714381058 -4.12E-04
   171 OT SD       0.80E-01    4.0     0.00010023      -882.5718520042 -4.14E-04
   172 OT SD       0.80E-01    4.0     0.00010050      -882.5722681307 -4.16E-04
   173 OT DIIS     0.80E-01    4.0     0.00010078      -882.5726865120 -4.18E-04
   174 OT SD       0.80E-01    4.0     0.00019144      -882.5687309825  3.96E-03
   175 OT SD       0.80E-01    4.0     0.00017497      -882.5701734917 -1.44E-03
   176 OT SD       0.80E-01    4.0     0.00016515      -882.5714010307 -1.23E-03
   177 OT SD       0.80E-01    4.0     0.00015850      -882.5725047444 -1.10E-03
   178 OT SD       0.80E-01    4.0     0.00015370      -882.5735270198 -1.02E-03
   179 OT SD       0.80E-01    4.0     0.00015009      -882.5744919307 -9.65E-04
   180 OT DIIS     0.80E-01    4.0     0.00014730      -882.5754145590 -9.23E-04
   181 OT DIIS     0.80E-01    4.0     0.00012069      -882.5971136167 -2.17E-02
   182 OT SD       0.80E-01    4.0     0.00012233      -882.6010232915 -3.91E-03
   183 OT DIIS     0.80E-01    4.0     0.00011862      -882.6016318875 -6.09E-04
   184 OT DIIS     0.80E-01    4.0     0.00009772      -882.6106292976 -9.00E-03
   185 OT DIIS     0.80E-01    4.0     0.00011106      -882.6111277852 -4.98E-04
   186 OT DIIS     0.80E-01    4.0     0.00009777      -882.6142962550 -3.17E-03
   187 OT DIIS     0.80E-01    4.0     0.00008453      -882.6184847137 -4.19E-03
   188 OT DIIS     0.80E-01    4.0     0.00007272      -882.6221580578 -3.67E-03
   189 OT DIIS     0.80E-01    4.0     0.00006741      -882.6235130133 -1.35E-03
   190 OT DIIS     0.80E-01    4.0     0.00006390      -882.6246454067 -1.13E-03
   191 OT DIIS     0.80E-01    4.0     0.00006218      -882.6255419664 -8.97E-04
   192 OT DIIS     0.80E-01    4.0     0.00006070      -882.6270613083 -1.52E-03
   193 OT DIIS     0.80E-01    4.0     0.00005850      -882.6279661907 -9.05E-04
   194 OT DIIS     0.80E-01    4.0     0.00005666      -882.6305532123 -2.59E-03
   195 OT DIIS     0.80E-01    4.0     0.00005410      -882.6319653520 -1.41E-03
   196 OT DIIS     0.80E-01    4.0     0.00005298      -882.6335512464 -1.59E-03
   197 OT DIIS     0.80E-01    4.0     0.00005198      -882.6344374542 -8.86E-04
   198 OT DIIS     0.80E-01    4.0     0.00005026      -882.6368785269 -2.44E-03
   199 OT DIIS     0.80E-01    4.0     0.00004921      -882.6380058303 -1.13E-03

  *** SCF run converged in   199 steps ***


  Electronic density on regular grids:       -418.9999999968        0.0000000032
  Core density on regular grids:              421.9999999732       -0.0000000268
  Total charge density on r-space grids:        2.9999999764
  Total charge density g-space grids:           2.9999999764

  Overlap energy of the core charge distribution:               0.00002395397309
  Self energy of the core charge distribution:              -2048.46367124836706
  Core Hamiltonian energy:                                    608.51665030122376
  Hartree energy:                                             763.44808916287286
  Exchange-correlation energy:                               -206.13909799995750

  Total energy:                                              -882.63800583025500

  Integrated absolute spin density  :                               6.1251527381
  Ideal and single determinant S**2 :                    0.750000       3.939020

 ENERGY| Total FORCE_EVAL ( QS ) energy (a.u.):             -882.638507465058410


 --------  Informations at step =     0 ------------
  Optimization Method        =                 BFGS
  Total Energy               =      -882.6385074651
  Used time                  =              875.058
 ---------------------------------------------------

 --------------------------
 OPTIMIZATION STEP:      1
 --------------------------

  Step is scaled; Scaling factor =  0.90509

 Spin 1

 Number of electrons:                                                        210
 Number of occupied orbitals:                                                210
 Number of molecular orbitals:                                               210

 Spin 2

 Number of electrons:                                                        209
 Number of occupied orbitals:                                                209
 Number of molecular orbitals:                                               209

 Number of orbital functions:                                               1234
 Number of independent orbital functions:                                   1234

 Extrapolation method: ASPC


 SCF WAVEFUNCTION OPTIMIZATION

  ----------------------------------- OT ---------------------------------------
  Minimizer      : DIIS                : direct inversion
                                         in the iterative subspace
                                         using   7 DIIS vectors
                                         safer DIIS on
  Preconditioner : FULL_SINGLE_INVERSE : inversion of 
                                         H + eS - 2*(Sc)(c^T*H*c+const)(Sc)^T
  Precond_solver : DEFAULT
  stepsize       :    0.08000000                  energy_gap     :    0.08000000
  eps_taylor     :   0.10000E-15                  max_taylor     :             4
  ----------------------------------- OT ---------------------------------------

  Step     Update method      Time    Convergence         Total energy    Change
  ------------------------------------------------------------------------------
     1 OT DIIS     0.80E-01    3.0     0.00242263      -882.3218174031 -8.82E+02
     2 OT DIIS     0.80E-01    4.0     0.00181077      -882.5303133955 -2.08E-01
     3 OT DIIS     0.80E-01    4.0     0.00104189      -882.7620365186 -2.32E-01
     4 OT DIIS     0.80E-01    4.0     0.00069752      -882.8465865242 -8.46E-02
     5 OT DIIS     0.80E-01    4.0     0.00056192      -882.8682380793 -2.17E-02
     6 OT DIIS     0.80E-01    4.0     0.00035990      -882.8767788395 -8.54E-03
     7 OT DIIS     0.80E-01    4.0     0.00024866      -882.8830079211 -6.23E-03
     8 OT DIIS     0.80E-01    4.0     0.00021715      -882.8868778359 -3.87E-03
     9 OT DIIS     0.80E-01    4.0     0.00021698      -882.8893641527 -2.49E-03
    10 OT DIIS     0.80E-01    4.0     0.00020560      -882.8904954964 -1.13E-03
    11 OT SD       0.80E-01    4.0     0.00020750      -882.8913777961 -8.82E-04
    12 OT SD       0.80E-01    4.0     0.00021468      -882.8931837073 -1.81E-03
    13 OT SD       0.80E-01    4.0     0.00022473      -882.8951229530 -1.94E-03
    14 OT SD       0.80E-01    4.0     0.00023863      -882.8972372909 -2.11E-03
    15 OT SD       0.80E-01    4.0     0.00026127      -882.8995531191 -2.32E-03
    16 OT SD       0.80E-01    4.0     0.00030970      -882.9020392353 -2.49E-03
    17 OT SD       0.80E-01    4.0     0.00043037      -882.9044354168 -2.40E-03
    18 OT SD       0.80E-01    4.0     0.00071657      -882.9055738392 -1.14E-03
    19 OT SD       0.80E-01    4.0     0.00132622      -882.9007858440  4.79E-03
    20 OT DIIS     0.80E-01    4.0     0.00253488      -882.8723880962  2.84E-02
    21 OT DIIS     0.80E-01    4.0     0.00023519      -882.8847822746 -1.24E-02
    22 OT DIIS     0.80E-01    4.0     0.00033417      -882.8855363569 -7.54E-04
    23 OT SD       0.80E-01    4.0     0.00034218      -882.8856717488 -1.35E-04
    24 OT SD       0.80E-01    4.0     0.00024348      -882.8876191640 -1.95E-03
    25 OT SD       0.80E-01    4.0     0.00028123      -882.8886737564 -1.05E-03
    26 OT DIIS     0.80E-01    4.0     0.00049584      -882.8887117665 -3.80E-05
    27 OT DIIS     0.80E-01    4.0     0.00015928      -882.8910755193 -2.36E-03
    28 OT DIIS     0.80E-01    4.0     0.00015989      -882.8916754555 -6.00E-04
    29 OT SD       0.80E-01    4.0     0.00016051      -882.8923975538 -7.22E-04
    30 OT SD       0.80E-01    4.0     0.00016549      -882.8934614879 -1.06E-03
    31 OT SD       0.80E-01    4.0     0.00017646      -882.8945606648 -1.10E-03
    32 OT SD       0.80E-01    4.0     0.00020997      -882.8956604887 -1.10E-03
    33 OT SD       0.80E-01    4.2     0.00031984      -882.8965427628 -8.82E-04
    34 OT SD       0.80E-01    4.0     0.00062748      -882.8960352192  5.08E-04
    35 OT DIIS     0.80E-01    4.0     0.00138108      -882.8879311520  8.10E-03
    36 OT SD       0.80E-01    4.0     0.00020083      -882.8858050652  2.13E-03
    37 OT SD       0.80E-01    4.0     0.00015305      -882.8868733102 -1.07E-03
    38 OT SD       0.80E-01    4.0     0.00016024      -882.8876489810 -7.76E-04
    39 OT SD       0.80E-01    4.0     0.00021248      -882.8882825077 -6.34E-04
    40 OT SD       0.80E-01    4.0     0.00035854      -882.8884765608 -1.94E-04
    41 OT DIIS     0.80E-01   15.2     0.00069022      -882.8868725102  1.60E-03
    42 OT SD       0.80E-01   18.4     0.00013593      -882.8897762789 -2.90E-03
    43 OT SD       0.80E-01   15.3     0.00013791      -882.8905366959 -7.60E-04
    44 OT SD       0.80E-01    4.0     0.00014477      -882.8912992032 -7.63E-04
    45 OT SD       0.80E-01    4.0     0.00017236      -882.8920344625 -7.35E-04
    46 OT SD       0.80E-01    4.0     0.00027208      -882.8925673645 -5.33E-04
    47 OT SD       0.80E-01    4.0     0.00055433      -882.8919444455  6.23E-04
    48 OT DIIS     0.80E-01    4.0     0.00124292      -882.8850593749  6.89E-03
    49 OT SD       0.80E-01    4.0     0.00015291      -882.8876061097 -2.55E-03
    50 OT SD       0.80E-01    4.0     0.00013019      -882.8883534911 -7.47E-04
    51 OT SD       0.80E-01    4.0     0.00013673      -882.8889806778 -6.27E-04
    52 OT SD       0.80E-01    4.0     0.00017165      -882.8895428194 -5.62E-04
    53 OT SD       0.80E-01    4.0     0.00027815      -882.8898597095 -3.17E-04
    54 OT DIIS     0.80E-01    4.0     0.00053703      -882.8890931913  7.67E-04
    55 OT SD       0.80E-01    4.0     0.00012335      -882.8886380560  4.55E-04
    56 OT SD       0.80E-01    4.0     0.00012384      -882.8892635319 -6.25E-04
    57 OT SD       0.80E-01    4.0     0.00012596      -882.8898878658 -6.24E-04
    58 OT SD       0.80E-01    4.0     0.00013446      -882.8905051715 -6.17E-04
    59 OT SD       0.80E-01    4.0     0.00016905      -882.8910758162 -5.71E-04
    60 OT SD       0.80E-01    4.0     0.00028551      -882.8913866241 -3.11E-04
    61 OT SD       0.80E-01    4.0     0.00059591      -882.8903184880  1.07E-03
    62 OT DIIS     0.80E-01    4.0     0.00133223      -882.8820200083  8.30E-03
    63 OT SD       0.80E-01    4.0     0.00013225      -882.8881546736 -6.13E-03
    64 OT SD       0.80E-01    4.0     0.00011766      -882.8887621654 -6.07E-04
    65 OT SD       0.80E-01    4.0     0.00011716      -882.8893124464 -5.50E-04
    66 OT SD       0.80E-01    4.0     0.00012067      -882.8898547544 -5.42E-04
    67 OT SD       0.80E-01    4.0     0.00013235      -882.8903841695 -5.29E-04
    68 OT SD       0.80E-01    4.0     0.00016663      -882.8908655816 -4.81E-04
    69 OT SD       0.80E-01    4.0     0.00025495      -882.8911625842 -2.97E-04
    70 OT SD       0.80E-01    4.0     0.00045418      -882.8907434378  4.19E-04
    71 OT DIIS     0.80E-01    4.0     0.00087250      -882.8874851798  3.26E-03
    72 OT SD       0.80E-01    4.0     0.00011595      -882.8879020631 -4.17E-04
    73 OT SD       0.80E-01    4.0     0.00011417      -882.8884301045 -5.28E-04
    74 OT SD       0.80E-01    4.0     0.00012180      -882.8889366311 -5.07E-04
    75 OT SD       0.80E-01    4.0     0.00015676      -882.8893935379 -4.57E-04
    76 OT SD       0.80E-01    4.0     0.00027500      -882.8895930417 -2.00E-04
    77 OT DIIS     0.80E-01    4.0     0.00058661      -882.8884306290  1.16E-03
    78 OT SD       0.80E-01    4.0     0.00011143      -882.8883164529  1.14E-04
    79 OT SD       0.80E-01    4.0     0.00011166      -882.8888286722 -5.12E-04
    80 OT SD       0.80E-01    4.0     0.00011265      -882.8893403532 -5.12E-04
    81 OT SD       0.80E-01    4.0     0.00011614      -882.8898498164 -5.09E-04
    82 OT SD       0.80E-01    4.0     0.00012864      -882.8903465373 -4.97E-04
    83 OT SD       0.80E-01    4.0     0.00017009      -882.8907836733 -4.37E-04
    84 OT SD       0.80E-01    4.0     0.00028411      -882.8909596798 -1.76E-04
    85 OT SD       0.80E-01    4.7     0.00054958      -882.8900041835  9.55E-04
    86 OT DIIS     0.80E-01    4.0     0.00112290      -882.8841188830  5.89E-03
    87 OT SD       0.80E-01    4.0     0.00011464      -882.8877452284 -3.63E-03
    88 OT SD       0.80E-01    4.0     0.00010843      -882.8882454986 -5.00E-04
    89 OT SD       0.80E-01    4.0     0.00010812      -882.8887243627 -4.79E-04
    90 OT SD       0.80E-01    4.0     0.00011020      -882.8891993991 -4.75E-04
    91 OT SD       0.80E-01    4.0     0.00012089      -882.8896631796 -4.64E-04
    92 OT SD       0.80E-01    4.0     0.00016620      -882.8900634110 -4.00E-04
    93 OT SD       0.80E-01    4.0     0.00031109      -882.8901160391 -5.26E-05
    94 OT DIIS     0.80E-01    4.0     0.00068180      -882.8883021035  1.81E-03
    95 OT SD       0.80E-01    4.0     0.00010655      -882.8876920033  6.10E-04
    96 OT SD       0.80E-01    4.0     0.00010556      -882.8881492086 -4.57E-04
    97 OT SD       0.80E-01   10.8     0.00010786      -882.8885986934 -4.49E-04
    98 OT SD       0.80E-01   11.1     0.00011771      -882.8890371288 -4.38E-04
    99 OT SD       0.80E-01   11.1     0.00015299      -882.8894279168 -3.91E-04
   100 OT SD       0.80E-01   11.1     0.00025435      -882.8896081150 -1.80E-04
   101 OT DIIS     0.80E-01   11.0     0.00049353      -882.8888679883  7.40E-04
   102 OT SD       0.80E-01   10.9     0.00010472      -882.8876312624  1.24E-03
   103 OT SD       0.80E-01   10.8     0.00011003      -882.8880605223 -4.29E-04
   104 OT SD       0.80E-01   11.1     0.00013731      -882.8884535842 -3.93E-04
   105 OT SD       0.80E-01   11.1     0.00023424      -882.8886645360 -2.11E-04
   106 OT SD       0.80E-01   11.1     0.00049699      -882.8879017701  7.63E-04
   107 OT DIIS     0.80E-01   11.0     0.00112556      -882.8819461018  5.96E-03
   108 OT SD       0.80E-01   10.8     0.00010411      -882.8876674744 -5.72E-03
   109 OT SD       0.80E-01   10.9     0.00010360      -882.8881011092 -4.34E-04
   110 OT SD       0.80E-01   11.0     0.00010838      -882.8885244010 -4.23E-04
   111 OT SD       0.80E-01   11.1     0.00012759      -882.8889249017 -4.01E-04
   112 OT SD       0.80E-01   11.1     0.00019030      -882.8892245416 -3.00E-04
   113 OT SD       0.80E-01    8.8     0.00035329      -882.8890709415  1.54E-04
   114 OT DIIS     0.80E-01    4.0     0.00072322      -882.8868736714  2.20E-03
   115 OT SD       0.80E-01    4.0     0.00010364      -882.8870949643 -2.21E-04
   116 OT SD       0.80E-01    4.0     0.00010060      -882.8875115095 -4.17E-04
   117 OT SD       0.80E-01    4.0     0.00010205      -882.8879148480 -4.03E-04
   118 OT SD       0.80E-01    9.6     0.00010785      -882.8883109620 -3.96E-04
   119 OT SD       0.80E-01    4.0     0.00012534      -882.8886871601 -3.76E-04
   120 OT SD       0.80E-01    4.0     0.00017360      -882.8889921016 -3.05E-04
   121 OT SD       0.80E-01    4.0     0.00029235      -882.8890195124 -2.74E-05
   122 OT DIIS     0.80E-01    4.0     0.00056191      -882.8878822838  1.14E-03
   123 OT SD       0.80E-01    4.0     0.00009833      -882.8870089789  8.73E-04
   124 OT SD       0.80E-01    4.0     0.00010485      -882.8873778592 -3.69E-04
   125 OT SD       0.80E-01    4.0     0.00013186      -882.8877109804 -3.33E-04
   126 OT SD       0.80E-01    4.0     0.00021434      -882.8878972456 -1.86E-04
   127 OT DIIS     0.80E-01    4.0     0.00041792      -882.8874228558  4.74E-04
   128 OT SD       0.80E-01    4.0     0.00009340      -882.8875255383 -1.03E-04
   129 OT SD       0.80E-01    4.0     0.00011196      -882.8877640121 -2.38E-04
   130 OT SD       0.80E-01    4.0     0.00016352      -882.8879287953 -1.65E-04
   131 OT DIIS     0.80E-01    4.0     0.00028931      -882.8878042905  1.25E-04
   132 OT DIIS     0.80E-01    4.0     0.00008131      -882.8883688389 -5.65E-04
   133 OT DIIS     0.80E-01    4.0     0.00008113      -882.8883689184 -7.95E-08
   134 OT DIIS     0.80E-01    4.0     0.00007236      -882.8892093236 -8.40E-04
   135 OT DIIS     0.80E-01    4.0     0.00006577      -882.8895495956 -3.40E-04
   136 OT DIIS     0.80E-01    4.0     0.00006520      -882.8895622252 -1.26E-05
   137 OT DIIS     0.80E-01    4.0     0.00006511      -882.8899006010 -3.38E-04
   138 OT SD       0.80E-01    4.0     0.00006512      -882.8899838264 -8.32E-05
   139 OT SD       0.80E-01    4.0     0.00006548      -882.8901595574 -1.76E-04
   140 OT SD       0.80E-01    4.0     0.00006604      -882.8903372388 -1.78E-04
   141 OT SD       0.80E-01    4.0     0.00006704      -882.8905174207 -1.80E-04
   142 OT SD       0.80E-01    4.0     0.00006958      -882.8906998872 -1.82E-04
   143 OT SD       0.80E-01    4.0     0.00007851      -882.8908806098 -1.81E-04
   144 OT SD       0.80E-01    4.0     0.00011065      -882.8910363487 -1.56E-04
   145 OT SD       0.80E-01    4.0     0.00020501      -882.8910472352 -1.09E-05
   146 OT DIIS     0.80E-01    4.0     0.00043690      -882.8903065928  7.41E-04
   147 OT DIIS     0.80E-01    4.0     0.00007708      -882.8897404074  5.66E-04
   148 OT SD       0.80E-01    4.0     0.00008912      -882.8899099521 -1.70E-04
   149 OT DIIS     0.80E-01    4.0     0.00006707      -882.8901072792 -1.97E-04
   150 OT DIIS     0.80E-01    4.0     0.00005964      -882.8901490418 -4.18E-05
   151 OT DIIS     0.80E-01    4.0     0.00005903      -882.8903246215 -1.76E-04
   152 OT SD       0.80E-01    4.0     0.00005895      -882.8906187386 -2.94E-04
   153 OT SD       0.80E-01    4.0     0.00005929      -882.8907618850 -1.43E-04
   154 OT SD       0.80E-01    4.0     0.00006032      -882.8909051369 -1.43E-04
   155 OT SD       0.80E-01    4.0     0.00006361      -882.8910472792 -1.42E-04
   156 OT SD       0.80E-01    4.0     0.00007417      -882.8911831341 -1.36E-04
   157 OT SD       0.80E-01    4.0     0.00010403      -882.8912929620 -1.10E-04
   158 OT SD       0.80E-01    4.0     0.00017452      -882.8913031460 -1.02E-05
   159 OT SD       0.80E-01    4.0     0.00032098      -882.8909407841  3.62E-04
   160 OT DIIS     0.80E-01    4.0     0.00060925      -882.8891972825  1.74E-03
   161 OT DIIS     0.80E-01    4.0     0.00006170      -882.8902589887 -1.06E-03
   162 OT SD       0.80E-01    4.0     0.00006434      -882.8904657877 -2.07E-04
   163 OT SD       0.80E-01    4.0     0.00006002      -882.8906064920 -1.41E-04
   164 OT SD       0.80E-01    4.1     0.00006462      -882.8907347250 -1.28E-04
   165 OT SD       0.80E-01    4.1     0.00008586      -882.8908451990 -1.10E-04
   166 OT DIIS     0.80E-01    4.1     0.00015058      -882.8908777054 -3.25E-05
   167 OT DIIS     0.80E-01    4.1     0.00005625      -882.8909607418 -8.30E-05
   168 OT DIIS     0.80E-01    4.1     0.00005609      -882.8912757074 -3.15E-04
   169 OT DIIS     0.80E-01    4.2     0.00005610      -882.8913745659 -9.89E-05
   170 OT DIIS     0.80E-01    4.2     0.00005595      -882.8914898039 -1.15E-04
   171 OT SD       0.80E-01    4.2     0.00005608      -882.8915889971 -9.92E-05
   172 OT SD       0.80E-01    4.1     0.00005626      -882.8917191837 -1.30E-04
   173 OT SD       0.80E-01    4.1     0.00005651      -882.8918502128 -1.31E-04
   174 OT SD       0.80E-01    4.1     0.00005690      -882.8919821666 -1.32E-04
   175 OT SD       0.80E-01    4.1     0.00005774      -882.8921149371 -1.33E-04
   176 OT SD       0.80E-01    4.1     0.00006020      -882.8922476911 -1.33E-04
   177 OT SD       0.80E-01    4.1     0.00006845      -882.8923766397 -1.29E-04
   178 OT SD       0.80E-01    4.1     0.00009436      -882.8924857341 -1.09E-04
   179 OT SD       0.80E-01    4.2     0.00016237      -882.8925071218 -2.14E-05
   180 OT SD       0.80E-01    4.3     0.00031697      -882.8921499288  3.57E-04
   181 OT DIIS     0.80E-01    4.0     0.00064917      -882.8901455792  2.00E-03
   182 OT DIIS     0.80E-01    4.0     0.00005834      -882.8907628782 -6.17E-04
   183 OT SD       0.80E-01    4.0     0.00006477      -882.8908134760 -5.06E-05
   184 OT SD       0.80E-01    4.0     0.00005739      -882.8909466513 -1.33E-04
   185 OT DIIS     0.80E-01    4.0     0.00005898      -882.8910647604 -1.18E-04
   186 OT DIIS     0.80E-01    4.0     0.00005349      -882.8911216249 -5.69E-05
   187 OT DIIS     0.80E-01    4.0     0.00005348      -882.8911335354 -1.19E-05
   188 OT SD       0.80E-01    4.0     0.00005349      -882.8912370148 -1.03E-04
   189 OT SD       0.80E-01    4.0     0.00005360      -882.8913553971 -1.18E-04
   190 OT SD       0.80E-01    4.0     0.00005380      -882.8914741635 -1.19E-04
   191 OT SD       0.80E-01    4.0     0.00005434      -882.8915932688 -1.19E-04
   192 OT SD       0.80E-01    4.0     0.00005626      -882.8917120550 -1.19E-04
   193 OT SD       0.80E-01    4.0     0.00006397      -882.8918270048 -1.15E-04
   194 OT SD       0.80E-01    4.0     0.00009168      -882.8919209412 -9.39E-05
   195 OT SD       0.80E-01    4.0     0.00017023      -882.8919108263  1.01E-05
   196 OT DIIS     0.80E-01    4.0     0.00035821      -882.8913936467  5.17E-04
   197 OT DIIS     0.80E-01    4.0     0.00005408      -882.8908602474  5.33E-04
   198 OT SD       0.80E-01    4.0     0.00005761      -882.8915384679 -6.78E-04
   199 OT DIIS     0.80E-01    4.0     0.00005266      -882.8916559298 -1.17E-04
   200 OT DIIS     0.80E-01    4.0     0.00005128      -882.8918341363 -1.78E-04

  Leaving inner SCF loop after reaching   200 steps.


  Electronic density on regular grids:       -418.9999999912        0.0000000088
  Core density on regular grids:              421.9999999732       -0.0000000268
  Total charge density on r-space grids:        2.9999999820
  Total charge density g-space grids:           2.9999999820

  Overlap energy of the core charge distribution:               0.00001785897075
  Self energy of the core charge distribution:              -2048.46367124836706
  Core Hamiltonian energy:                                    606.48596933886506
  Hartree energy:                                             764.76126202178057
  Exchange-correlation energy:                               -205.67541210751097

  Total energy:                                              -882.89183413626165

 *** WARNING in qs_scf.F:467 :: SCF run NOT converged ***


  Integrated absolute spin density  :                               6.7853008598
  Ideal and single determinant S**2 :                    0.750000       4.337364

 ENERGY| Total FORCE_EVAL ( QS ) energy (a.u.):             -882.892226199083325


 --------  Informations at step =     1 ------------
  Optimization Method        =                 BFGS
  Total Energy               =      -882.8922261991
  Real energy change         =        -0.2537187340
  Predicted change in energy =        -0.3292695233
  Scaling factor             =         0.9050915079
  Step size                  =         0.5669178399
  Trust radius               =         0.5669178399
  Decrease in energy         =                  YES
  Used time                  =              964.892

  Convergence check :
  Max. step size             =         0.5669178399
  Conv. limit for step size  =         0.1000000000
  Convergence in step size   =                   NO
  RMS step size              =         0.1030598359
  Conv. limit for RMS step   =         0.0100000000
  Convergence in RMS step    =                   NO
  Max. gradient              =         0.1116812064
  Conv. limit for gradients  =         0.1000000000
  Conv. for gradients        =                   NO
  RMS gradient               =         0.0208461729
  Conv. limit for RMS grad.  =         0.0100000000
  Conv. for gradients        =                   NO
 ---------------------------------------------------

 --------------------------
 OPTIMIZATION STEP:      2
 --------------------------

 Spin 1

 Number of electrons:                                                        210
 Number of occupied orbitals:                                                210
 Number of molecular orbitals:                                               210

 Spin 2

 Number of electrons:                                                        209
 Number of occupied orbitals:                                                209
 Number of molecular orbitals:                                               209

 Number of orbital functions:                                               1234
 Number of independent orbital functions:                                   1234

 Extrapolation method: ASPC


 SCF WAVEFUNCTION OPTIMIZATION

  ----------------------------------- OT ---------------------------------------
  Minimizer      : DIIS                : direct inversion
                                         in the iterative subspace
                                         using   7 DIIS vectors
                                         safer DIIS on
  Preconditioner : FULL_SINGLE_INVERSE : inversion of 
                                         H + eS - 2*(Sc)(c^T*H*c+const)(Sc)^T
  Precond_solver : DEFAULT
  stepsize       :    0.08000000                  energy_gap     :    0.08000000
  eps_taylor     :   0.10000E-15                  max_taylor     :             4
  ----------------------------------- OT ---------------------------------------

  Step     Update method      Time    Convergence         Total energy    Change
  ------------------------------------------------------------------------------
     1 OT DIIS     0.80E-01    3.0     0.00295566      -882.2763347526 -8.82E+02
     2 OT DIIS     0.80E-01    4.0     0.00214257      -882.5798394392 -3.04E-01
     3 OT DIIS     0.80E-01    4.0     0.00133532      -882.8679251718 -2.88E-01
     4 OT DIIS     0.80E-01    4.0     0.00088704      -883.0065095312 -1.39E-01
     5 OT DIIS     0.80E-01    4.0     0.00077482      -883.0373182084 -3.08E-02
     6 OT DIIS     0.80E-01    4.0     0.00042299      -883.0504160958 -1.31E-02
     7 OT DIIS     0.80E-01    4.0     0.00026261      -883.0591307065 -8.71E-03
     8 OT DIIS     0.80E-01    4.3     0.00022771      -883.0616196388 -2.49E-03
     9 OT DIIS     0.80E-01    4.0     0.00016393      -883.0634833615 -1.86E-03
    10 OT DIIS     0.80E-01    4.0     0.00014531      -883.0648389824 -1.36E-03
    11 OT DIIS     0.80E-01    4.0     0.00014386      -883.0659582864 -1.12E-03
    12 OT SD       0.80E-01    4.0     0.00014261      -883.0664616640 -5.03E-04
    13 OT SD       0.80E-01    4.0     0.00014969      -883.0673163422 -8.55E-04
    14 OT SD       0.80E-01    4.0     0.00016158      -883.0682575638 -9.41E-04
    15 OT SD       0.80E-01    4.0     0.00018450      -883.0693119191 -1.05E-03
    16 OT SD       0.80E-01    4.0     0.00024306      -883.0704495765 -1.14E-03
    17 OT SD       0.80E-01    4.0     0.00040744      -883.0713224612 -8.73E-04
    18 OT SD       0.80E-01    4.0     0.00082556      -883.0699306081  1.39E-03
    19 OT DIIS     0.80E-01    4.0     0.00179514      -883.0559497531  1.40E-02
    20 OT SD       0.80E-01    4.0     0.00036930      -883.0633899583 -7.44E-03
    21 OT DIIS     0.80E-01    4.0     0.00029548      -883.0643309862 -9.41E-04
    22 OT SD       0.80E-01    4.0     0.00028637      -883.0633234144  1.01E-03
    23 OT DIIS     0.80E-01    4.0     0.00021817      -883.0640312271 -7.08E-04
    24 OT SD       0.80E-01    4.0     0.00016963      -883.0637412069  2.90E-04
    25 OT DIIS     0.80E-01    4.0     0.00013226      -883.0641414510 -4.00E-04
    26 OT DIIS     0.80E-01    4.0     0.00010630      -883.0642512214 -1.10E-04
    27 OT DIIS     0.80E-01    4.0     0.00008007      -883.0648313535 -5.80E-04
    28 OT DIIS     0.80E-01    4.0     0.00011607      -883.0650755391 -2.44E-04
    29 OT DIIS     0.80E-01    4.0     0.00006938      -883.0652810521 -2.06E-04
    30 OT DIIS     0.80E-01    4.0     0.00006519      -883.0656418924 -3.61E-04
    31 OT DIIS     0.80E-01    4.0     0.00006281      -883.0661780036 -5.36E-04
    32 OT DIIS     0.80E-01    4.0     0.00006300      -883.0665427811 -3.65E-04
    33 OT SD       0.80E-01    4.0     0.00006283      -883.0666155123 -7.27E-05
    34 OT SD       0.80E-01    4.0     0.00006393      -883.0667782267 -1.63E-04
    35 OT SD       0.80E-01    4.0     0.00006670      -883.0669433306 -1.65E-04
    36 OT SD       0.80E-01    4.0     0.00007525      -883.0671079094 -1.65E-04
    37 OT SD       0.80E-01    4.0     0.00010252      -883.0672548903 -1.47E-04
    38 OT SD       0.80E-01    4.0     0.00017756      -883.0673031649 -4.83E-05
    39 OT DIIS     0.80E-01    4.0     0.00035550      -883.0668764863  4.27E-04
    40 OT DIIS     0.80E-01    4.0     0.00008328      -883.0663992040  4.77E-04
    41 OT SD       0.80E-01    4.0     0.00007849      -883.0664199124 -2.07E-05
    42 OT SD       0.80E-01    4.0     0.00006738      -883.0665716478 -1.52E-04
    43 OT DIIS     0.80E-01    4.0     0.00006224      -883.0667075434 -1.36E-04
    44 OT DIIS     0.80E-01    4.0     0.00005572      -883.0667727226 -6.52E-05
    45 OT DIIS     0.80E-01    4.0     0.00005520      -883.0668748278 -1.02E-04
    46 OT DIIS     0.80E-01    4.0     0.00005502      -883.0670185518 -1.44E-04
    47 OT SD       0.80E-01    4.0     0.00005507      -883.0670614553 -4.29E-05
    48 OT SD       0.80E-01    4.0     0.00005526      -883.0671869456 -1.25E-04
    49 OT SD       0.80E-01    4.0     0.00005567      -883.0673130760 -1.26E-04
    50 OT SD       0.80E-01    4.2     0.00005691      -883.0674396317 -1.27E-04
    51 OT SD       0.80E-01    4.0     0.00006176      -883.0675646237 -1.25E-04
    52 OT SD       0.80E-01    4.0     0.00008082      -883.0676773512 -1.13E-04
    53 OT SD       0.80E-01    4.0     0.00014117      -883.0677235535 -4.62E-05
    54 OT SD       0.80E-01    4.0     0.00029486      -883.0674298798  2.94E-04
    55 OT DIIS     0.80E-01    4.0     0.00065084      -883.0654182825  2.01E-03
    56 OT SD       0.80E-01    4.0     0.00005534      -883.0661646822 -7.46E-04
    57 OT DIIS     0.80E-01    4.0     0.00005675      -883.0662770659 -1.12E-04
    58 OT SD       0.80E-01    4.0     0.00005944      -883.0662675831  9.48E-06
    59 OT DIIS     0.80E-01    4.0     0.00005593      -883.0663813344 -1.14E-04
    60 OT SD       0.80E-01    4.0     0.00005082      -883.0666201742 -2.39E-04
    61 OT SD       0.80E-01    4.0     0.00005132      -883.0667263180 -1.06E-04
    62 OT SD       0.80E-01    4.0     0.00005293      -883.0668327329 -1.06E-04
    63 OT SD       0.80E-01    4.0     0.00005834      -883.0669377492 -1.05E-04
    64 OT SD       0.80E-01    4.0     0.00007619      -883.0670326182 -9.49E-05
    65 OT SD       0.80E-01   11.0     0.00012604      -883.0670783710 -4.58E-05
    66 OT SD       0.80E-01   11.8     0.00024404      -883.0669031306  1.75E-04
    67 OT DIIS     0.80E-01   10.3     0.00050302      -883.0657386183  1.16E-03
    68 OT DIIS     0.80E-01    4.0     0.00005461      -883.0662379985 -4.99E-04
    69 OT SD       0.80E-01    4.0     0.00005492      -883.0663966605 -1.59E-04
    70 OT SD       0.80E-01    4.0     0.00005106      -883.0664954165 -9.88E-05
    71 OT DIIS     0.80E-01    4.0     0.00004984      -883.0665901461 -9.47E-05

  *** SCF run converged in    71 steps ***


  Electronic density on regular grids:       -418.9999999919        0.0000000081
  Core density on regular grids:              421.9999999732       -0.0000000268
  Total charge density on r-space grids:        2.9999999813
  Total charge density g-space grids:           2.9999999813

  Overlap energy of the core charge distribution:               0.00001621905836
  Self energy of the core charge distribution:              -2048.46367124836706
  Core Hamiltonian energy:                                    606.90866319017323
  Hartree energy:                                             764.24959215809008
  Exchange-correlation energy:                               -205.76119046501191

  Total energy:                                              -883.06659014605702

  Integrated absolute spin density  :                               7.2148845628
  Ideal and single determinant S**2 :                    0.750000       4.580638

 ENERGY| Total FORCE_EVAL ( QS ) energy (a.u.):             -883.066670721015385


 --------  Informations at step =     2 ------------
  Optimization Method        =                 BFGS
  Total Energy               =      -883.0666707210
  Real energy change         =        -0.1744445219
  Predicted change in energy =        -0.2037470934
  Scaling factor             =         0.9050915079
  Step size                  =         0.2786049069
  Trust radius               =         0.5669178399
  Decrease in energy         =                  YES
  Used time                  =              309.411

  Convergence check :
  Max. step size             =         0.2786049069
  Conv. limit for step size  =         0.1000000000
  Convergence in step size   =                   NO
  RMS step size              =         0.0848460617
  Conv. limit for RMS step   =         0.0100000000
  Convergence in RMS step    =                   NO
  Max. gradient              =         0.0552582095
  Conv. limit for gradients  =         0.1000000000
  Conv. in gradients         =                  YES
  RMS gradient               =         0.0105532255
  Conv. limit for RMS grad.  =         0.0100000000
  Conv. for gradients        =                   NO
 ---------------------------------------------------

 --------------------------
 OPTIMIZATION STEP:      3
 --------------------------

 Spin 1

 Number of electrons:                                                        210
 Number of occupied orbitals:                                                210
 Number of molecular orbitals:                                               210

 Spin 2

 Number of electrons:                                                        209
 Number of occupied orbitals:                                                209
 Number of molecular orbitals:                                               209

 Number of orbital functions:                                               1234
 Number of independent orbital functions:                                   1234

 Extrapolation method: ASPC


 SCF WAVEFUNCTION OPTIMIZATION

  ----------------------------------- OT ---------------------------------------
  Minimizer      : DIIS                : direct inversion
                                         in the iterative subspace
                                         using   7 DIIS vectors
                                         safer DIIS on
  Preconditioner : FULL_SINGLE_INVERSE : inversion of 
                                         H + eS - 2*(Sc)(c^T*H*c+const)(Sc)^T
  Precond_solver : DEFAULT
  stepsize       :    0.08000000                  energy_gap     :    0.08000000
  eps_taylor     :   0.10000E-15                  max_taylor     :             4
  ----------------------------------- OT ---------------------------------------

  Step     Update method      Time    Convergence         Total energy    Change
  ------------------------------------------------------------------------------
     1 OT DIIS     0.80E-01    3.0     0.00312046      -882.1997922647 -8.82E+02
     2 OT DIIS     0.80E-01    4.0     0.00231440      -882.5403015174 -3.41E-01
     3 OT DIIS     0.80E-01    4.0     0.00154286      -882.8570700577 -3.17E-01
     4 OT DIIS     0.80E-01    4.0     0.00082459      -883.0339664950 -1.77E-01
     5 OT DIIS     0.80E-01    4.0     0.00069232      -883.0805408869 -4.66E-02
     6 OT DIIS     0.80E-01    4.0     0.00045476      -883.0918177854 -1.13E-02
     7 OT DIIS     0.80E-01    4.0     0.00030558      -883.1012747100 -9.46E-03
     8 OT DIIS     0.80E-01    4.1     0.00026236      -883.1055031661 -4.23E-03
     9 OT DIIS     0.80E-01    4.1     0.00026551      -883.1088162024 -3.31E-03
    10 OT DIIS     0.80E-01    4.1     0.00024344      -883.1098901495 -1.07E-03
    11 OT SD       0.80E-01    4.1     0.00024695      -883.1103890786 -4.99E-04
    12 OT SD       0.80E-01    4.1     0.00026120      -883.1129675973 -2.58E-03
    13 OT SD       0.80E-01    4.1     0.00028075      -883.1158769976 -2.91E-03
    14 OT SD       0.80E-01   11.6     0.00030561      -883.1192269078 -3.35E-03
    15 OT SD       0.80E-01    4.4     0.00034108      -883.1231023232 -3.88E-03
    16 OT SD       0.80E-01    4.1     0.00041110      -883.1274551613 -4.35E-03
    17 OT SD       0.80E-01    4.1     0.00059692      -883.1316914597 -4.24E-03
    18 OT SD       0.80E-01    4.1     0.00109821      -883.1324994973 -8.08E-04
    19 OT SD       0.80E-01    4.1     0.00231281      -883.1129187683  1.96E-02
    20 OT DIIS     0.80E-01    4.1     0.00496496      -882.9907462408  1.22E-01
    21 OT SD       0.80E-01    4.1     0.00031948      -883.1010959877 -1.10E-01
    22 OT SD       0.80E-01    4.1     0.00025080      -883.1027199532 -1.62E-03
    23 OT SD       0.80E-01    4.1     0.00026051      -883.1038487908 -1.13E-03
    24 OT SD       0.80E-01    4.1     0.00042181      -883.1042418772 -3.93E-04
    25 OT DIIS     0.80E-01    4.1     0.00088359      -883.1015846548  2.66E-03
    26 OT DIIS     0.80E-01    4.1     0.00059498      -883.0977895515  3.80E-03
    27 OT DIIS     0.80E-01    4.1     0.00020846      -883.1013478738 -3.56E-03
    28 OT DIIS     0.80E-01    4.1     0.00020907      -883.1018247098 -4.77E-04
    29 OT DIIS     0.80E-01    4.1     0.00009387      -883.1025484311 -7.24E-04
    30 OT DIIS     0.80E-01    4.1     0.00015664      -883.1030072622 -4.59E-04
    31 OT DIIS     0.80E-01    4.1     0.00010879      -883.1039233440 -9.16E-04
    32 OT DIIS     0.80E-01    4.1     0.00008479      -883.1042773491 -3.54E-04
    33 OT DIIS     0.80E-01    4.1     0.00008581      -883.1044393544 -1.62E-04
    34 OT DIIS     0.80E-01    4.1     0.00008122      -883.1047150749 -2.76E-04
    35 OT DIIS     0.80E-01    4.1     0.00007579      -883.1049821738 -2.67E-04
    36 OT DIIS     0.80E-01    4.1     0.00007662      -883.1050819908 -9.98E-05
    37 OT DIIS     0.80E-01    4.1     0.00007567      -883.1051593274 -7.73E-05
    38 OT DIIS     0.80E-01    4.1     0.00007534      -883.1052196938 -6.04E-05
    39 OT SD       0.80E-01    4.1     0.00007536      -883.1053497337 -1.30E-04
    40 OT SD       0.80E-01    4.1     0.00007632      -883.1055845462 -2.35E-04
    41 OT SD       0.80E-01    4.1     0.00007855      -883.1058227010 -2.38E-04
    42 OT SD       0.80E-01    4.0     0.00008566      -883.1060613861 -2.39E-04
    43 OT SD       0.80E-01    4.0     0.00011116      -883.1062820958 -2.21E-04
    44 OT SD       0.80E-01    4.0     0.00018974      -883.1063906718 -1.09E-04
    45 OT SD       0.80E-01    4.0     0.00038806      -883.1059228525  4.68E-04
    46 OT DIIS     0.80E-01    4.0     0.00084232      -883.1026005916  3.32E-03
    47 OT SD       0.80E-01    4.0     0.00010126      -883.1034952872 -8.95E-04
    48 OT SD       0.80E-01   11.1     0.00007500      -883.1037387258 -2.43E-04
    49 OT SD       0.80E-01   11.3     0.00007073      -883.1039214768 -1.83E-04
    50 OT SD       0.80E-01   11.3     0.00008077      -883.1040833305 -1.62E-04
    51 OT SD       0.80E-01   11.4     0.00011796      -883.1042053115 -1.22E-04
    52 OT SD       0.80E-01   11.3     0.00021321      -883.1041659261  3.94E-05
    53 OT DIIS     0.80E-01   11.3     0.00042407      -883.1034363626  7.30E-04
    54 OT SD       0.80E-01   11.3     0.00006326      -883.1034726575 -3.63E-05
    55 OT SD       0.80E-01   11.3     0.00006429      -883.1036332131 -1.61E-04
    56 OT SD       0.80E-01   11.0     0.00007099      -883.1037880207 -1.55E-04
    57 OT SD       0.80E-01    4.0     0.00009808      -883.1039194512 -1.31E-04
    58 OT SD       0.80E-01    4.1     0.00018013      -883.1039350524 -1.56E-05
    59 OT DIIS     0.80E-01    4.1     0.00038241      -883.1033702196  5.65E-04
    60 OT SD       0.80E-01   11.2     0.00006202      -883.1035997880 -2.30E-04
    61 OT SD       0.80E-01   11.3     0.00006273      -883.1037527555 -1.53E-04
    62 OT SD       0.80E-01    4.2     0.00006607      -883.1039032184 -1.50E-04
    63 OT SD       0.80E-01    4.0     0.00007602      -883.1040471525 -1.44E-04
    64 OT SD       0.80E-01    4.0     0.00010221      -883.1041686097 -1.21E-04
    65 OT SD       0.80E-01    4.0     0.00016203      -883.1042113041 -4.27E-05
    66 OT SD       0.80E-01    4.0     0.00028511      -883.1039753226  2.36E-04
    67 OT DIIS     0.80E-01    4.0     0.00052747      -883.1027347706  1.24E-03
    68 OT SD       0.80E-01    4.0     0.00008413      -883.1032155767 -4.81E-04
    69 OT SD       0.80E-01    4.0     0.00006068      -883.1033848674 -1.69E-04
    70 OT SD       0.80E-01    4.0     0.00005618      -883.1035081576 -1.23E-04
    71 OT SD       0.80E-01    4.0     0.00006177      -883.1036193653 -1.11E-04
    72 OT SD       0.80E-01    4.0     0.00008814      -883.1037094594 -9.01E-05
    73 OT SD       0.80E-01    4.0     0.00016581      -883.1036998288  9.63E-06
    74 OT DIIS     0.80E-01    4.0     0.00035408      -883.1031915006  5.08E-04
    75 OT SD       0.80E-01    4.0     0.00005208      -883.1030590382  1.32E-04
    76 OT SD       0.80E-01    4.0     0.00005340      -883.1031653750 -1.06E-04
    77 OT SD       0.80E-01    4.0     0.00006073      -883.1032662241 -1.01E-04
    78 OT SD       0.80E-01    4.0     0.00008560      -883.1033480044 -8.18E-05
    79 OT DIIS     0.80E-01    4.0     0.00015134      -883.1033495214 -1.52E-06
    80 OT DIIS     0.80E-01    4.0     0.00004937      -883.1033793985 -2.99E-05

  *** SCF run converged in    80 steps ***


  Electronic density on regular grids:       -418.9999999916        0.0000000084
  Core density on regular grids:              421.9999999732       -0.0000000268
  Total charge density on r-space grids:        2.9999999816
  Total charge density g-space grids:           2.9999999816

  Overlap energy of the core charge distribution:               0.00001609247200
  Self energy of the core charge distribution:              -2048.46367124836706
  Core Hamiltonian energy:                                    606.98244412318786
  Hartree energy:                                             764.14975228245214
  Exchange-correlation energy:                               -205.77192064822367

  Total energy:                                              -883.10337939847886

  Integrated absolute spin density  :                               7.3680392820
  Ideal and single determinant S**2 :                    0.750000       4.631627

 ENERGY| Total FORCE_EVAL ( QS ) energy (a.u.):             -883.103565366063890


 --------  Informations at step =     3 ------------
  Optimization Method        =                 BFGS
  Total Energy               =      -883.1035653661
  Real energy change         =        -0.0368946450
  Predicted change in energy =        -0.0524889932
  Scaling factor             =         0.9050915079
  Step size                  =         0.1574512783
  Trust radius               =         0.5669178399
  Decrease in energy         =                  YES
  Used time                  =              416.154

  Convergence check :
  Max. step size             =         0.1574512783
  Conv. limit for step size  =         0.1000000000
  Convergence in step size   =                   NO
  RMS step size              =         0.0452365588
  Conv. limit for RMS step   =         0.0100000000
  Convergence in RMS step    =                   NO
  Max. gradient              =         0.0463325025
  Conv. limit for gradients  =         0.1000000000
  Conv. in gradients         =                  YES
  RMS gradient               =         0.0074839690
  Conv. limit for RMS grad.  =         0.0100000000
  Conv. in RMS gradients     =                  YES
 ---------------------------------------------------

 --------------------------
 OPTIMIZATION STEP:      4
 --------------------------

 Spin 1

 Number of electrons:                                                        210
 Number of occupied orbitals:                                                210
 Number of molecular orbitals:                                               210

 Spin 2

 Number of electrons:                                                        209
 Number of occupied orbitals:                                                209
 Number of molecular orbitals:                                               209

 Number of orbital functions:                                               1234
 Number of independent orbital functions:                                   1234

 Extrapolation method: ASPC


 SCF WAVEFUNCTION OPTIMIZATION

  ----------------------------------- OT ---------------------------------------
  Minimizer      : DIIS                : direct inversion
                                         in the iterative subspace
                                         using   7 DIIS vectors
                                         safer DIIS on
  Preconditioner : FULL_SINGLE_INVERSE : inversion of 
                                         H + eS - 2*(Sc)(c^T*H*c+const)(Sc)^T
  Precond_solver : DEFAULT
  stepsize       :    0.08000000                  energy_gap     :    0.08000000
  eps_taylor     :   0.10000E-15                  max_taylor     :             4
  ----------------------------------- OT ---------------------------------------

  Step     Update method      Time    Convergence         Total energy    Change
  ------------------------------------------------------------------------------
     1 OT DIIS     0.80E-01    3.0     0.00264269      -882.4641852441 -8.82E+02
     2 OT DIIS     0.80E-01    4.0     0.00199663      -882.7143058546 -2.50E-01
     3 OT DIIS     0.80E-01    4.0     0.00109124      -883.0110722920 -2.97E-01
     4 OT DIIS     0.80E-01    4.0     0.00083898      -883.0886923291 -7.76E-02
     5 OT DIIS     0.80E-01    4.0     0.00064541      -883.1077490925 -1.91E-02
     6 OT DIIS     0.80E-01    4.1     0.00033428      -883.1201276105 -1.24E-02
     7 OT DIIS     0.80E-01    4.0     0.00022614      -883.1253743577 -5.25E-03
     8 OT DIIS     0.80E-01    4.1     0.00016565      -883.1276578036 -2.28E-03
     9 OT DIIS     0.80E-01    4.0     0.00012843      -883.1288337114 -1.18E-03
    10 OT DIIS     0.80E-01    4.0     0.00010655      -883.1297468014 -9.13E-04
    11 OT DIIS     0.80E-01    4.0     0.00010198      -883.1302922029 -5.45E-04
    12 OT DIIS     0.80E-01    4.0     0.00009011      -883.1307805206 -4.88E-04
    13 OT DIIS     0.80E-01    4.0     0.00008793      -883.1313456025 -5.65E-04
    14 OT DIIS     0.80E-01    4.0     0.00008785      -883.1317391482 -3.94E-04
    15 OT DIIS     0.80E-01    4.0     0.00008759      -883.1319642718 -2.25E-04
    16 OT SD       0.80E-01    4.0     0.00008762      -883.1320071795 -4.29E-05
    17 OT SD       0.80E-01    4.0     0.00008845      -883.1323256499 -3.18E-04
    18 OT SD       0.80E-01    4.0     0.00008986      -883.1326501026 -3.24E-04
    19 OT SD       0.80E-01    4.0     0.00009262      -883.1329821492 -3.32E-04
    20 OT SD       0.80E-01    4.0     0.00010015      -883.1333197255 -3.38E-04
    21 OT SD       0.80E-01    4.0     0.00012534      -883.1336440246 -3.24E-04
    22 OT SD       0.80E-01    4.0     0.00020253      -883.1338573686 -2.13E-04
    23 OT SD       0.80E-01    4.0     0.00039780      -883.1334908554  3.67E-04
    24 OT DIIS     0.80E-01    4.0     0.00084047      -883.1303333392  3.16E-03
    25 OT SD       0.80E-01    4.0     0.00011884      -883.1309376966 -6.04E-04
    26 OT SD       0.80E-01    4.0     0.00009372      -883.1312491994 -3.12E-04
    27 OT SD       0.80E-01    4.0     0.00008616      -883.1315064336 -2.57E-04
    28 OT SD       0.80E-01    4.0     0.00009419      -883.1317368877 -2.30E-04
    29 OT SD       0.80E-01    4.0     0.00013316      -883.1319164282 -1.80E-04
    30 OT SD       0.80E-01    4.0     0.00023932      -883.1318918731  2.46E-05
    31 OT DIIS     0.80E-01    4.0     0.00048073      -883.1309751150  9.17E-04
    32 OT SD       0.80E-01    4.0     0.00007472      -883.1309339266  4.12E-05
    33 OT SD       0.80E-01    4.0     0.00007568      -883.1311558011 -2.22E-04
    34 OT SD       0.80E-01    4.0     0.00008313      -883.1313696354 -2.14E-04
    35 OT SD       0.80E-01    4.0     0.00011285      -883.1315531030 -1.83E-04
    36 OT SD       0.80E-01    4.1     0.00020148      -883.1315942020 -4.11E-05
    37 OT DIIS     0.80E-01    4.0     0.00041660      -883.1309541916  6.40E-04
    38 OT SD       0.80E-01    4.0     0.00007187      -883.1313561074 -4.02E-04
    39 OT SD       0.80E-01    4.0     0.00007191      -883.1315667975 -2.11E-04
    40 OT SD       0.80E-01    4.0     0.00007268      -883.1317771078 -2.10E-04
    41 OT SD       0.80E-01    4.0     0.00007503      -883.1319868284 -2.10E-04
    42 OT SD       0.80E-01    4.0     0.00008218      -883.1321927845 -2.06E-04
    43 OT SD       0.80E-01    4.0     0.00010396      -883.1323807934 -1.88E-04
    44 OT SD       0.80E-01    4.0     0.00016323      -883.1324913446 -1.11E-04
    45 OT SD       0.80E-01    4.0     0.00030273      -883.1322728928  2.18E-04
    46 OT DIIS     0.80E-01   10.9     0.00060465      -883.1306505571  1.62E-03
    47 OT SD       0.80E-01   11.3     0.00009665      -883.1310804955 -4.30E-04
    48 OT SD       0.80E-01   11.3     0.00008898      -883.1312902766 -2.10E-04
    49 OT SD       0.80E-01   11.3     0.00012042      -883.1314300157 -1.40E-04
    50 OT SD       0.80E-01   11.3     0.00022341      -883.1313756773  5.43E-05
    51 OT DIIS     0.80E-01   11.3     0.00046747      -883.1304523827  9.23E-04
    52 OT DIIS     0.80E-01   11.3     0.00006406      -883.1315782329 -1.13E-03
    53 OT DIIS     0.80E-01   11.3     0.00006343      -883.1317609396 -1.83E-04
    54 OT DIIS     0.80E-01   11.3     0.00005920      -883.1321382206 -3.77E-04
    55 OT DIIS     0.80E-01   11.3     0.00005800      -883.1324817088 -3.43E-04
    56 OT SD       0.80E-01   11.4     0.00005798      -883.1327277090 -2.46E-04
    57 OT DIIS     0.80E-01   11.3     0.00005729      -883.1328626705 -1.35E-04
    58 OT DIIS     0.80E-01   11.3     0.00005587      -883.1335747558 -7.12E-04
    59 OT DIIS     0.80E-01    6.5     0.00005551      -883.1339960700 -4.21E-04
    60 OT DIIS     0.80E-01    4.0     0.00005643      -883.1341600104 -1.64E-04
    61 OT DIIS     0.80E-01    4.0     0.00005592      -883.1343814085 -2.21E-04
    62 OT SD       0.80E-01    4.0     0.00005340      -883.1348088448 -4.27E-04
    63 OT SD       0.80E-01    4.0     0.00005330      -883.1349256448 -1.17E-04
    64 OT DIIS     0.80E-01    4.0     0.00005360      -883.1350416752 -1.16E-04
    65 OT DIIS     0.80E-01    4.0     0.00005282      -883.1354446165 -4.03E-04
    66 OT SD       0.80E-01    4.0     0.00005262      -883.1355525908 -1.08E-04
    67 OT SD       0.80E-01    4.0     0.00005453      -883.1356640702 -1.11E-04
    68 OT SD       0.80E-01    4.0     0.00006113      -883.1357739459 -1.10E-04
    69 OT SD       0.80E-01    4.2     0.00008290      -883.1358710653 -9.71E-05
    70 OT SD       0.80E-01    4.0     0.00014296      -883.1359028751 -3.18E-05
    71 OT DIIS     0.80E-01    4.0     0.00028380      -883.1356312546  2.72E-04
    72 OT SD       0.80E-01    4.0     0.00005212      -883.1354329183  1.98E-04
    73 OT DIIS     0.80E-01    4.0     0.00005005      -883.1355281973 -9.53E-05
    74 OT DIIS     0.80E-01    4.0     0.00004278      -883.1362268977 -6.99E-04

  *** SCF run converged in    74 steps ***


  Electronic density on regular grids:       -418.9999999910        0.0000000090
  Core density on regular grids:              421.9999999732       -0.0000000268
  Total charge density on r-space grids:        2.9999999821
  Total charge density g-space grids:           2.9999999821

  Overlap energy of the core charge distribution:               0.00001591683701
  Self energy of the core charge distribution:              -2048.46367124836706
  Core Hamiltonian energy:                                    606.47929968113772
  Hartree energy:                                             764.50049383792884
  Exchange-correlation energy:                               -205.65236508524600

  Total energy:                                              -883.13622689770932

  Integrated absolute spin density  :                               6.7671617632
  Ideal and single determinant S**2 :                    0.750000       4.173642

 ENERGY| Total FORCE_EVAL ( QS ) energy (a.u.):             -883.136534656530785


 --------  Informations at step =     4 ------------
  Optimization Method        =                 BFGS
  Total Energy               =      -883.1365346565
  Real energy change         =        -0.0329692905
  Predicted change in energy =        -0.0312582166
  Scaling factor             =         0.9050915079
  Step size                  =         0.1660860521
  Trust radius               =         0.5669178399
  Decrease in energy         =                  YES
  Used time                  =              398.017

  Convergence check :
  Max. step size             =         0.1660860521
  Conv. limit for step size  =         0.1000000000
  Convergence in step size   =                   NO
  RMS step size              =         0.0365299724
  Conv. limit for RMS step   =         0.0100000000
  Convergence in RMS step    =                   NO
  Max. gradient              =         0.0293815133
  Conv. limit for gradients  =         0.1000000000
  Conv. in gradients         =                  YES
  RMS gradient               =         0.0052192686
  Conv. limit for RMS grad.  =         0.0100000000
  Conv. in RMS gradients     =                  YES
 ---------------------------------------------------

 --------------------------
 OPTIMIZATION STEP:      5
 --------------------------

 Spin 1

 Number of electrons:                                                        210
 Number of occupied orbitals:                                                210
 Number of molecular orbitals:                                               210

 Spin 2

 Number of electrons:                                                        209
 Number of occupied orbitals:                                                209
 Number of molecular orbitals:                                               209

 Number of orbital functions:                                               1234
 Number of independent orbital functions:                                   1234

 Extrapolation method: ASPC


 SCF WAVEFUNCTION OPTIMIZATION

  ----------------------------------- OT ---------------------------------------
  Minimizer      : DIIS                : direct inversion
                                         in the iterative subspace
                                         using   7 DIIS vectors
                                         safer DIIS on
  Preconditioner : FULL_SINGLE_INVERSE : inversion of 
                                         H + eS - 2*(Sc)(c^T*H*c+const)(Sc)^T
  Precond_solver : DEFAULT
  stepsize       :    0.08000000                  energy_gap     :    0.08000000
  eps_taylor     :   0.10000E-15                  max_taylor     :             4
  ----------------------------------- OT ---------------------------------------

  Step     Update method      Time    Convergence         Total energy    Change
  ------------------------------------------------------------------------------
     1 OT DIIS     0.80E-01    3.0     0.00224555      -882.7316630755 -8.83E+02
     2 OT DIIS     0.80E-01    4.0     0.00158874      -882.8925732481 -1.61E-01
     3 OT DIIS     0.80E-01    4.0     0.00121948      -882.9878330211 -9.53E-02
     4 OT DIIS     0.80E-01    4.0     0.00062541      -883.1117706595 -1.24E-01
     5 OT DIIS     0.80E-01    4.0     0.00073013      -883.1320996790 -2.03E-02
     6 OT DIIS     0.80E-01    4.0     0.00026115      -883.1434236117 -1.13E-02
     7 OT DIIS     0.80E-01    4.0     0.00019598      -883.1475548325 -4.13E-03
     8 OT DIIS     0.80E-01   11.0     0.00015298      -883.1493364287 -1.78E-03
     9 OT DIIS     0.80E-01   11.3     0.00012848      -883.1501952421 -8.59E-04
    10 OT DIIS     0.80E-01   11.3     0.00010397      -883.1509732516 -7.78E-04
    11 OT DIIS     0.80E-01   11.3     0.00009407      -883.1515355215 -5.62E-04
[...]
 flops  109 x   18 x  114              3491457480       0.0%    100.0%      0.0%
 flops   42 x    5 x   32              4170055680       0.0%    100.0%      0.0%
 flops   17 x   32 x  109              4353275136       0.0%    100.0%      0.0%
 flops   32 x   17 x  109              4353275136       0.0%    100.0%      0.0%
 flops    5 x   42 x   32              4430684160       0.0%    100.0%      0.0%
 flops   42 x   32 x   42              4496421888       0.0%    100.0%      0.0%
 flops   18 x   32 x  109              4609350144       0.0%    100.0%      0.0%
 flops   32 x   18 x  109              4609350144       0.0%    100.0%      0.0%
 flops   13 x   17 x   42              4888031148       0.0%    100.0%      0.0%
 flops   42 x   17 x   13              4888031148       0.0%    100.0%      0.0%
 flops   13 x   32 x   32              4946952192       0.0%    100.0%      0.0%
 flops   13 x   18 x   42              5132083320       0.0%    100.0%      0.0%
 flops   42 x   18 x   13              5132083320       0.0%    100.0%      0.0%
 flops  109 x   17 x   32              5414199168       0.0%    100.0%      0.0%
 flops  109 x   32 x   17              5414199168       0.0%    100.0%      0.0%
 flops  109 x   18 x   32              5732681472       0.0%    100.0%      0.0%
 flops  109 x   32 x   18              5732681472       0.0%    100.0%      0.0%
 flops    5 x    5 x   32              8755219200       0.0%    100.0%      0.0%
 flops    5 x   17 x   13             12435106450       0.0%    100.0%      0.0%
 flops   13 x   17 x    5             12435106450       0.0%    100.0%      0.0%
 flops    5 x   18 x   13             13057419960       0.0%    100.0%      0.0%
 flops   13 x   18 x    5             13057419960       0.0%    100.0%      0.0%
 flops  109 x   32 x  109             14243513088       0.0%    100.0%      0.0%
 flops  111 x   17 x  111             16348118850       0.0%    100.0%      0.0%
 flops  111 x   17 x  114             16789959900       0.0%    100.0%      0.0%
 flops  114 x   17 x  111             16789959900       0.0%    100.0%      0.0%
 flops  114 x   17 x  114             17243742600       0.0%    100.0%      0.0%
 flops  111 x   18 x  111             17309772900       0.0%    100.0%      0.0%
 flops   32 x   32 x   17             17449500672       0.0%    100.0%      0.0%
 flops   17 x   32 x   32             17449500672       0.0%    100.0%      0.0%
 flops   32 x   17 x   32             17449500672       0.0%    100.0%      0.0%
 flops   42 x   32 x    5             17664514560       0.0%    100.0%      0.0%
 flops    5 x   32 x   42             17664514560       0.0%    100.0%      0.0%
 flops  111 x   18 x  114             17777604600       0.0%    100.0%      0.0%
 flops  114 x   18 x  111             17777604600       0.0%    100.0%      0.0%
 flops   32 x   32 x   18             18221137920       0.0%    100.0%      0.0%
 flops   18 x   32 x   32             18221137920       0.0%    100.0%      0.0%
 flops   32 x   18 x   32             18221137920       0.0%    100.0%      0.0%
 flops  114 x   18 x  114             18258080400       0.0%    100.0%      0.0%
 flops   17 x   32 x  111             22165758720       0.0%    100.0%      0.0%
 flops   32 x   17 x  111             22165758720       0.0%    100.0%      0.0%
 flops   17 x   32 x  114             22764833280       0.0%    100.0%      0.0%
 flops   32 x   17 x  114             22764833280       0.0%    100.0%      0.0%
 flops   18 x   32 x  111             23469626880       0.0%    100.0%      0.0%
 flops   32 x   18 x  111             23469626880       0.0%    100.0%      0.0%
 flops   18 x   32 x  114             24103941120       0.0%    100.0%      0.0%
 flops   32 x   18 x  114             24103941120       0.0%    100.0%      0.0%
 flops   13 x   13 x   17             24301707196       0.0%    100.0%      0.0%
 flops   13 x   13 x   18             25731219384       0.0%    100.0%      0.0%
 flops   13 x   42 x   32             26427727872       0.0%    100.0%      0.0%
 flops   42 x   13 x   32             27105361920       0.0%    100.0%      0.0%
 flops  111 x   17 x   32             27567711360       0.0%    100.0%      0.0%
 flops  111 x   32 x   17             27567711360       0.0%    100.0%      0.0%
 flops  114 x   32 x   17             28312784640       0.0%    100.0%      0.0%
 flops  114 x   17 x   32             28312784640       0.0%    100.0%      0.0%
 flops  111 x   18 x   32             29189341440       0.0%    100.0%      0.0%
 flops  111 x   32 x   18             29189341440       0.0%    100.0%      0.0%
 flops  114 x   32 x   18             29978242560       0.0%    100.0%      0.0%
 flops  114 x   18 x   32             29978242560       0.0%    100.0%      0.0%
 flops    5 x   32 x    5             33216960000       0.0%    100.0%      0.0%
 flops    5 x   13 x   32             68609299200       0.0%    100.0%      0.0%
 flops   13 x    5 x   32             68937073920       0.0%    100.0%      0.0%
 flops  111 x   32 x  109             72524309760       0.0%    100.0%      0.0%
 flops  109 x   32 x  111             72524309760       0.0%    100.0%      0.0%
 flops  114 x   32 x  109             74484426240       0.0%    100.0%      0.0%
 flops  109 x   32 x  114             74484426240       0.0%    100.0%      0.0%
 flops   13 x   17 x   13             98332361010       0.0%    100.0%      0.0%
 flops   32 x   32 x  109             98370306048       0.0%    100.0%      0.0%
 flops   13 x   18 x   13            103248844452       0.0%    100.0%      0.0%
 flops   42 x   32 x   13            109948220928       0.0%    100.0%      0.0%
 flops   13 x   32 x   42            109948220928       0.0%    100.0%      0.0%
 flops  109 x   32 x   32            122297204736       0.0%    100.0%      0.0%
 flops   13 x   32 x    5            279722701440       0.0%    100.0%      0.0%
 flops    5 x   32 x   13            279722701440       0.0%    100.0%      0.0%
 flops  111 x   32 x  111            369275155200       0.0%    100.0%      0.0%
 flops  114 x   32 x  111            379255564800       0.0%    100.0%      0.0%
 flops  111 x   32 x  114            379255564800       0.0%    100.0%      0.0%
 flops  114 x   32 x  114            389505715200       0.0%    100.0%      0.0%
 flops   32 x   32 x   32            391435517952       0.0%    100.0%      0.0%
 flops   32 x   32 x  111            500876328960       0.0%    100.0%      0.0%
 flops   32 x   32 x  114            514413527040       0.0%    100.0%      0.0%
 flops   13 x   13 x   32            548932680192       0.0%    100.0%      0.0%
 flops  111 x   32 x   32            622705950720       0.0%    100.0%      0.0%
 flops  114 x   32 x   32            639535841280       0.0%    100.0%      0.0%
 flops   13 x   32 x   13           2211898261248       0.0%    100.0%      0.0%
 flops total                         9.654051E+12       0.0%    100.0%      0.0%
 flops max/rank                    156.068573E+09       0.0%    100.0%      0.0%
 matmuls inhomo. stacks                         0       0.0%      0.0%      0.0%
 matmuls total                          564166456       0.0%    100.0%      0.0%
 number of processed stacks              62533310       0.0%    100.0%      0.0%
 average stack size                                     0.0       9.0       0.0
 marketing flops                    11.794443E+12
 -------------------------------------------------------------------------------
 # multiplications                          68294
 max memory usage/rank             405.225472E+06
 # max total images/rank                        1
 # MPI messages exchanged               165271480
 # MPI messages filtered                        0
 MPI messages size (elements):
  total size                       303.227142E+09
  min size                           0.000000E+00
  max size                          12.996000E+03
  average size                       1.834721E+03
 MPI breakdown and total messages size (bytes):
             size <=      128            75691600                        0
       128 < size <=     8192            34587140             247838759120
      8192 < size <=    32768            43183140            1159877568800
     32768 < size <=   131072            11809600            1018715729600
    131072 < size <=  4194304                   0                        0
   4194304 < size <= 16777216                   0                        0
  16777216 < size                               0                        0
 -------------------------------------------------------------------------------

 MEMORY| Estimated peak process memory [MiB]                                 387

 -------------------------------------------------------------------------------
 -                                                                             -
 -                         MESSAGE PASSING PERFORMANCE                         -
 -                                                                             -
 -------------------------------------------------------------------------------

 ROUTINE             CALLS  TOT TIME [s]  AVE VOLUME [Bytes]  PERFORMANCE [MB/s]
 MP_Group                5         0.000
 MP_Bcast           141457         0.426              21517.             7141.38
 MP_Allreduce       534834       403.136                138.                0.18
 MP_Sync              2888         0.028
 MP_Alltoall        299092      1020.893            2890362.              846.79
 MP_ISendRecv      1498080        23.643              72192.             4574.25
 MP_Wait          10243100      1017.484
 MP_comm_split        2884         8.051
 MP_ISend          4597055        41.752              47480.             5227.67
 MP_IRecv          4597055         4.859              47195.            44649.53
 MP_Recv              1980         0.344             178265.             1024.98
 MP_Memory         2774564         0.539
 -------------------------------------------------------------------------------


 -------------------------------------------------------------------------------
 -                                                                             -
 -                           R E F E R E N C E S                               -
 -                                                                             -
 -------------------------------------------------------------------------------
 
 CP2K version 4.1, the CP2K developers group (2016).
 CP2K is freely available from https://www.cp2k.org/ .

 Schuett, Ole; Messmer, Peter; Hutter, Juerg; VandeVondele, Joost. 
 Electronic Structure Calculations on Graphics Processing Units, John Wiley & Sons, Ltd, 173-190 (2016). 
 GPU-Accelerated Sparse Matrix-Matrix Multiplication for Linear Scaling Density Functional Theory.
 http://dx.doi.org/10.1002/9781118670712.ch8


 Borstnik, U; VandeVondele, J; Weber, V; Hutter, J. 
 PARALLEL COMPUTING, 40 (5-6), 47-58 (2014). 
 Sparse matrix multiplication: The distributed block-compressed sparse
 row library.
 http://dx.doi.org/10.1016/j.parco.2014.03.012


 Hutter, J; Iannuzzi, M; Schiffmann, F; VandeVondele, J. 
 WILEY INTERDISCIPLINARY REVIEWS-COMPUTATIONAL MOLECULAR SCIENCE, 4 (1), 15-25 (2014). 
 CP2K: atomistic simulations of condensed matter systems.
 http://dx.doi.org/10.1002/wcms.1159


 VandeVondele, J; Hutter, J. 
 JOURNAL OF CHEMICAL PHYSICS, 127 (11), 114105 (2007). 
 Gaussian basis sets for accurate calculations on molecular systems in
 gas and condensed phases.
 http://dx.doi.org/10.1063/1.2770708


 Krack, M. 
 THEORETICAL CHEMISTRY ACCOUNTS, 114 (1-3), 145-152 (2005). 
 Pseudopotentials for H to Kr optimized for gradient-corrected
 exchange-correlation functionals.
 http://dx.doi.org/10.1007/s00214-005-0655-y


 VandeVondele, J; Krack, M; Mohamed, F; Parrinello, M; Chassaing, T;
 Hutter, J. COMPUTER PHYSICS COMMUNICATIONS, 167 (2), 103-128 (2005). 
 QUICKSTEP: Fast and accurate density functional calculations using a
 mixed Gaussian and plane waves approach.
 http://dx.doi.org/10.1016/j.cpc.2004.12.014


 Frigo, M; Johnson, SG. 
 PROCEEDINGS OF THE IEEE, 93 (2), 216-231 (2005). 
 The design and implementation of FFTW3.
 http://dx.doi.org/10.1109/JPROC.2004.840301


 Kolafa, J. 
 JOURNAL OF COMPUTATIONAL CHEMISTRY, 25 (3), 335-342 (2004). 
 Time-reversible always stable predictor-corrector method for molecular dynamics of polarizable molecules.
 http://dx.doi.org/10.1002/jcc.10385


 VandeVondele, J; Hutter, J. 
 JOURNAL OF CHEMICAL PHYSICS, 118 (10), 4365-4369 (2003). 
 An efficient orbital transformation method for electronic structure
 calculations.
 http://dx.doi.org/10.1063/1.1543154


 Hartwigsen, C; Goedecker, S; Hutter, J. 
 PHYSICAL REVIEW B, 58 (7), 3641-3662 (1998). 
 Relativistic separable dual-space Gaussian pseudopotentials from H to Rn.
 http://dx.doi.org/10.1103/PhysRevB.58.3641


 Lippert, G; Hutter, J; Parrinello, M. 
 MOLECULAR PHYSICS, 92 (3), 477-487 (1997). 
 A hybrid Gaussian and plane wave density functional scheme.
 http://dx.doi.org/10.1080/002689797170220


 Perdew, JP; Burke, K; Ernzerhof, M. 
 PHYSICAL REVIEW LETTERS, 77 (18), 3865-3868 (1996). 
 Generalized gradient approximation made simple.
 http://dx.doi.org/10.1103/PhysRevLett.77.3865


 Goedecker, S; Teter, M; Hutter, J. 
 PHYSICAL REVIEW B, 54 (3), 1703-1710 (1996). 
 Separable dual-space Gaussian pseudopotentials.
 http://dx.doi.org/10.1103/PhysRevB.54.1703


 -------------------------------------------------------------------------------
 -                                                                             -
 -                                T I M I N G                                  -
 -                                                                             -
 -------------------------------------------------------------------------------
 SUBROUTINE                       CALLS  ASD         SELF TIME        TOTAL TIME
                                MAXIMUM       AVERAGE  MAXIMUM  AVERAGE  MAXIMUM
 CP2K                                 1  1.0    0.019    0.024 7299.954 7299.966
 cp_geo_opt                           1  2.0    0.001    0.001 7296.804 7296.806
 geoopt_bfgs                          1  3.0    0.009    0.044 7296.803 7296.805
 cp_eval_at                          28  4.0    0.005    0.013 7294.877 7294.889
 qs_forces                           27  5.0    0.004    0.005 7257.739 7257.752
 qs_energies                         28  6.0    0.002    0.014 7202.097 7202.113
 scf_env_do_scf                      28  7.0    0.002    0.006 7150.965 7150.992
 scf_env_do_scf_inner_loop         1533  8.0    0.062    0.225 7032.844 7032.983
 rebuild_ks_matrix                 1560  9.9    0.006    0.009 4487.793 4489.039
 qs_ks_build_kohn_sham_matrix      1560 10.9    0.368    0.465 4487.787 4489.034
 qs_ks_update_qs_env               1561  9.0    0.037    0.049 4411.218 4412.458
 pw_transfer                      54638 13.7    5.473    6.928 3328.814 3601.475
 fft_wrap_pw1pw2                  51518 14.7    0.772    0.945 3300.044 3584.950
 fft_wrap_pw1pw2_250              32792 15.9  299.711  347.584 3158.004 3388.157
 fft3d_ps                         51518 16.7 1217.149 1316.627 2503.020 3034.405
 qs_vxc_create                     1560 11.9    0.066    0.094 2781.394 2808.039
 xc_vxc_pw_create                  1560 12.9   41.378   61.274 2781.328 2807.965
 rs_pw_transfer                   25023 13.5    0.495    0.660 1817.541 1863.233
 mp_alltoall_z22v                 51518 18.7  946.622 1821.291  946.622 1821.291
 qs_rho_update_rho                 1561  9.0    0.022    0.036 1709.275 1709.835
 calculate_rho_elec                3122 10.0   35.785   68.336 1709.252 1709.809
 density_rs2pw                     3122 11.0    0.168    0.200 1528.669 1556.337
 sum_up_and_integrate              1560 11.9   11.079   12.292 1410.016 1411.796
 integrate_v_rspace                3120 12.9   24.202   67.558 1398.919 1405.829
 xc_rho_set_and_dset_create        1560 13.9   35.908   40.505 1270.512 1387.680
 potential_pw2rs                   3120 13.9    0.387    0.462 1328.305 1341.946
 yz_to_x                          18752 17.5  127.607  156.136  635.133 1067.421
 mp_waitany                     1592343 15.5  664.920 1057.855  664.920 1057.855
 qs_scf_new_mos                    1533  9.0    0.009    0.019 1019.319 1020.862
 qs_scf_loop_do_ot                 1533 10.0    0.005    0.008 1019.310 1020.852
 ot_scf_mini                       1533 11.0    0.059    0.082  987.863  989.362
 x_to_yz                          20282 18.1  171.387  193.982  602.580  959.128
 dbcsr_multiply_generic           68294 14.1    0.942    1.117  743.267  756.917
 rs_pw_transfer_PW2RS_250          3147 15.9  268.283  314.117  571.300  624.526
 mp_waitall_1                   8650757 17.1  535.806  624.017  535.806  624.017
 rs_pw_transfer_RS2PW_250          3150 13.0  250.489  317.251  574.237  619.728
 ot_mini                           1533 12.0    0.009    0.013  527.515  528.895
 qs_ot_get_derivative              3066 13.0    0.025    0.030  442.288  444.338
 qs_ot_get_p                       3122 12.0    0.013    0.017  369.223  372.759
 rs_pw_transfer_PW2RS_90           3120 15.9   36.285   44.597  159.161  329.221
 qs_ot_get_derivative_diag         2803 14.0    0.063    0.069  317.809  320.059
 pw_scatter_p                     26522 17.3  266.450  295.509  266.450  295.509
 multiply_cannon                  68294 15.1    4.526    5.067  243.218  275.090
 pw_derive                        18720 14.4  229.320  261.678  229.320  261.678
 xc_functional_eval                1560 14.9    0.026    0.041  142.834  256.756
 pbe_lsd_eval                      1560 15.9  142.808  256.735  142.808  256.735
 make_m2s                        136588 15.1    1.066    1.254  208.000  238.807
 pw_gather_p                      24996 16.1  222.301  236.743  222.301  236.743
 make_images                     136588 16.1   14.114   14.562  203.642  234.796
 make_images_sizes               136588 17.1    0.081    0.089  171.204  208.164
 mp_alltoall_i44                 136588 18.1  171.123  208.089  171.123  208.089
 mp_sum_l                        123174 15.3  146.576  197.726  146.576  197.726
 rs_grid_zero                     18783 13.0  181.885  197.142  181.885  197.142
 mp_sum_d                        121414 15.1   95.898  193.246   95.898  193.246
 rs_pw_transfer_PW2RS_30           3120 15.9   22.962   43.299  176.157  184.912
 mp_sum_b                        123144 15.3  139.971  180.690  139.971  180.690
 qs_ot_p2m_diag                    2857 13.0    0.512    1.400  177.264  179.938
 rs_pw_transfer_RS2PW_30           3122 13.0   25.160   49.913  158.725  166.600
 mp_sum_dv                       271245 17.5  139.342  165.210  139.342  165.210
 dbcsr_arnoldi_normal_ev           3178 13.9    0.026    0.032  155.916  158.190
 dbcsr_arnoldi_extremal            3122 13.0    0.021    0.032  151.063  153.329
 build_subspace                    3223 14.9    0.063    0.076  150.325  151.918
 dbcsr_matrix_colvec_multiply_l   68922 15.7    0.031    0.033   81.338  148.554
 pw_axpy                          34356 13.1  127.608  147.875  127.608  147.875
 -------------------------------------------------------------------------------

 The number of warnings for this run is : 2
 
 -------------------------------------------------------------------------------
  **** **** ******  **  PROGRAM ENDED AT                 2023-04-08 06:49:14.516
 ***** ** ***  *** **   PROGRAM RAN ON            node145.pri.kelvin2.alces.netw
 **    ****   ******    PROGRAM RAN BY                                  40265864
 ***** **    ** ** **   PROGRAM PROCESS ID                                100022
  **** **  *******  **  PROGRAM STOPPED IN /mnt/scratch2/users/40265864/MSc_ML_M
                                           M/ln_replacements/xyz/Dy_L10_L19_L21/
                                           geometry_optimisation_2/run-0
