     113
 i =        1, E =      -883.0923061665
 Cl        -2.2840950759        1.6251729453      -13.3183059509
  C        -1.5570716364        1.1629715756      -11.8493459430
  C        -0.4360752384        1.8617353169      -11.3475515906
  C         0.1684490625        1.4970247502      -10.1330002687
  C        -0.2952449318        0.3436317855       -9.3924553144
  C        -1.4444195302       -0.3560322699       -9.9205061489
  C        -2.0645103078        0.0719766241      -11.1066903832
  C         0.3884058771       -0.1123649745       -8.1254216416
  C         0.4743302359        0.8621974722       -7.0648514348
  C        -0.0094001468        2.2068105992       -6.9465013877
  C         0.5123814458        2.7603657030       -5.8109902601
  C         1.3116020399        1.8005780628       -5.1830610024
  N         1.2209499734        0.6936365126       -5.9187890042
 Dy         2.0165113276       -1.1449234122       -5.3039089946
  N         1.3480487840       -2.1904489624       -7.0053556287
  C         0.8755974974       -1.5270475037       -8.1212571044
  C         0.8343570468       -2.5330645742       -9.1509956202
  C         1.1703299417       -3.7618650086       -8.5946411292
  C         1.4862707167       -3.5291231747       -7.2320006406
  C         1.6420773891       -4.4919585444       -6.1837590842
  C         2.0064865397       -4.2509595522       -4.8453422545
  N         2.5053620985       -3.0663009871       -4.4504734878
  C         3.1172036962       -3.1932565995       -3.2701175746
  C         2.9835367701       -4.5247401620       -2.8648958209
  C         2.2781165171       -5.1773903515       -3.8342029405
  C         3.9826138987       -2.2186004844       -2.6977186438
  C         3.9663823589       -0.8297321571       -2.8795484913
  N         3.0735508561       -0.2278110484       -3.6892135518
  C         3.1504185156        1.1155499354       -3.5218165974
  C         2.2471474675        2.0147552177       -4.1165958536
  C         2.3789282939        3.3875012504       -3.6870481356
  C         1.6291495225        3.8355581275       -2.5732527992
  C         1.6956088422        5.1862125591       -2.1997900799
  C         2.4973846044        6.0720804447       -2.9616012200
  C         3.2641752542        5.6246257901       -4.0634778558
  C         3.2076669225        4.2700314032       -4.4257918919
 Cl         2.5493670466        7.7186037384       -2.5260837129
  C         4.1006379877        1.3784413467       -2.5090054932
  C         4.6505639807        0.1578710473       -2.1416393969
  C         5.0247824957       -2.7706379750       -1.8711877081
  C         5.0112451284       -2.5967806446       -0.4676816471
  C         6.0439772614       -3.1587465584        0.2960875513
  C         7.1039105689       -3.8307470240       -0.3590634601
  C         7.1297856009       -3.9836020668       -1.7660396723
  C         6.0700914072       -3.4752998407       -2.5282482976
 Cl         8.3794749044       -4.4667353204        0.5710855630
  C         1.3432802579       -5.8710988538       -6.4823155447
  C        -0.0234854941       -6.2424452737       -6.5728051567
  C        -0.3617398913       -7.5762712665       -6.8316806749
  C         0.6744403376       -8.5231356187       -7.0089006800
  C         2.0417822600       -8.1544209778       -6.9356157057
  C         2.3798553633       -6.8239493699       -6.6454746066
 Cl         0.2665135690      -10.1455234251       -7.3204832749
  O         0.8749958017       -0.6910146489       -3.3613912335
  C         0.0577930693       -1.5711251534       -2.5852867930
  C        -0.8580762162       -2.6188885259       -3.2396801369
  C        -1.0193069539       -2.4396769134       -4.7265104713
  O        -0.2358516090       -1.5114457980       -5.4652540008
  C        -2.1914895013       -3.0892447324       -5.5069144712
  F        -2.5706315316       -4.3191927253       -5.0467803132
  F        -3.1307720369       -2.1491132967       -5.1937821902
  F        -1.9849804009       -3.0687150722       -6.8562133180
  C         0.1098374587       -1.4186355848       -1.0397887364
  C        -0.1226153901       -2.6237284785       -0.1261053276
  C         0.4178818702       -2.0525966791        1.1930531402
  C         0.9944216487       -0.6824006803        0.8034505412
  O         1.2342821243       -0.6429406048       -0.6201850378
  O         4.0942053694       -2.0571318452       -5.7531420586
  C         4.6888823359       -2.2382044085       -7.0281514270
  C         4.6591620525       -1.1634213690       -8.1008334724
  C         4.0470000000        0.1584390758       -7.6443349823
  O         3.4217588982        0.3310659020       -6.3737027740
  C         4.1473585720        1.4621630030       -8.4931183518
  F         4.2610700080        1.2226815212       -9.8305525345
  F         5.3595262344        1.8295086527       -7.9782013779
  F         3.1976866539        2.3855550466       -8.1634763933
  C         5.5239243084       -3.5320410255       -7.2085430720
  F         5.1162632390       -4.5251498794       -6.3629837372
  F         6.7087296394       -2.9725949895       -6.8087923007
  F         5.6328853470       -3.9485372077       -8.5037443977
  H        -0.0502099270        2.7100585675      -11.9161247490
  H         1.0431014465        2.0680731018       -9.8191191549
  H        -1.9033494566       -1.1885325872       -9.3856725712
  H        -2.9441752093       -0.4556804553      -11.4803041058
  H        -0.7054897645        2.7026260132       -7.6110519839
  H         0.3363086737        3.7600401210       -5.4222121091
  H         0.6035148718       -2.3669820099      -10.1934798563
  H         1.2634394799       -4.7350122743       -9.0718926920
  H         3.3092107693       -4.9036289388       -1.8995169597
  H         1.9429690185       -6.2080606811       -3.8272402666
  H         1.0222915910        3.1253057262       -2.0054480504
  H         1.1262759316        5.5388965567       -1.3393506551
  H         3.8895136369        6.3140143170       -4.6329765517
  H         3.7930576394        3.8965538958       -5.2705592856
  H         4.3641890510        2.3659304271       -2.1470814971
  H         5.4819689058       -0.0608857640       -1.4792172004
  H         4.1535313442       -2.1073399460        0.0024125713
  H         6.0287412413       -3.0457862230        1.3791908682
  H         7.9465775409       -4.5157719327       -2.2546133739
  H         6.0915708221       -3.5535437581       -3.6193006173
  H        -0.8077026403       -5.4978641459       -6.4162073835
  H        -1.4095248762       -7.8674624708       -6.9060952163
  H         2.8315402844       -8.8914895056       -7.0846862226
  H         3.4253778768       -6.5078575304       -6.6015383686
  H        -1.7797585996       -2.7996734308       -2.6897858673
  H        -0.7961802964       -0.7948468064       -1.1602895572
  H        -1.1850331237       -2.8755515086       -0.0546585296
  H         0.5122941340       -3.4434502771       -0.4789742167
  H        -0.3968988993       -1.9624047575        1.9220352977
  H         1.2078085742       -2.7082018338        1.5787640484
  H         0.2765161070        0.1010070158        1.0938793678
  H         1.9551521237       -0.5107567726        1.2964712291
  H         5.5882906028       -1.0424885203       -8.6606010769
     113
 i =        2, E =      -883.2493574433
 Cl        -2.2801902289        1.6217627078      -13.3055971632
  C        -1.5468282279        1.1580229981      -11.8284198996
  C        -0.4250118123        1.8753354024      -11.3295493049
  C         0.1680085615        1.5080034569      -10.1135190664
  C        -0.3023660847        0.3423274189       -9.4187321177
  C        -1.4282100361       -0.3832388257       -9.9252780761
  C        -2.0641857535        0.0517920762      -11.0964668804
  C         0.3765037735       -0.1239880874       -8.1608686883
  C         0.4614333410        0.9094103781       -7.1210564720
  C        -0.0700105921        2.2688043497       -7.0179089470
  C         0.4557591928        2.8411170765       -5.8420093078
  C         1.2859016130        1.8304336941       -5.2105037503
  N         1.2082573199        0.6932565602       -5.9758433596
 Dy         1.9974260213       -1.1340911540       -5.2873591478
  N         1.3336032002       -2.1713222314       -7.0516638061
  C         0.8398459673       -1.5434964174       -8.1767994486
  C         0.7956698947       -2.5391785001       -9.2395044987
  C         1.1518171886       -3.7714560069       -8.6838299524
  C         1.4548264808       -3.5232718462       -7.2945514562
  C         1.6192112045       -4.4825457292       -6.2260755934
  C         1.9945133451       -4.3000748320       -4.8377486997
  N         2.4729689644       -3.0787052768       -4.4316112797
  C         3.1452485364       -3.2377683606       -3.2489945647
  C         2.9976959761       -4.6124437117       -2.8022737878
  C         2.2575696251       -5.2799678804       -3.7952588435
  C         3.9994946202       -2.2233572778       -2.6741749836
  C         3.9937329887       -0.7943643878       -2.8154695123
  N         3.1017337238       -0.2209570342       -3.6647165665
  C         3.1645402015        1.1340795261       -3.4625264811
  C         2.2516607495        2.0249031918       -4.1332123087
  C         2.3697803582        3.4348210423       -3.6791508192
  C         1.6261037757        3.8561381719       -2.5504688439
  C         1.6842248759        5.2023307035       -2.1829673889
  C         2.4979200246        6.0777021844       -2.9570077078
  C         3.2756705456        5.6405023184       -4.0665699783
  C         3.2159824774        4.2922616432       -4.4291821451
 Cl         2.5518520278        7.7346773104       -2.5209622090
  C         4.1740005260        1.4386264086       -2.4561326058
  C         4.7265273561        0.2163352001       -2.0742235178
  C         5.0611515998       -2.7915248911       -1.8327318641
  C         5.0345310587       -2.5838007872       -0.4346955166
  C         6.0558170777       -3.1522256533        0.3246215681
  C         7.1082587139       -3.8304519105       -0.3522752223
  C         7.1450713603       -4.0000986298       -1.7656101846
  C         6.0794013681       -3.5116830147       -2.5213813711
 Cl         8.3903443758       -4.4745081681        0.5813165323
  C         1.3322134600       -5.9070252126       -6.5224397716
  C        -0.0424697018       -6.2587839696       -6.5976889540
  C        -0.3794806757       -7.5908511893       -6.8356887770
  C         0.6749619468       -8.5292461691       -7.0137652128
  C         2.0533746836       -8.1736007897       -6.9329317546
  C         2.3880608996       -6.8473912522       -6.6479126638
 Cl         0.2650773943      -10.1622029504       -7.3257109983
  O         0.7852322585       -0.7297579147       -3.2476923792
  C         0.0712527488       -1.6344507623       -2.6625611747
  C        -0.8632606240       -2.4771721302       -3.2812154731
  C        -0.9837366615       -2.4302891901       -4.6463057859
  O        -0.3537727736       -1.6111131256       -5.4584763169
  C        -2.1508206927       -3.0098002838       -5.4700988594
  F        -2.5485041516       -4.2603395561       -5.1127452144
  F        -3.2150068586       -2.1856102457       -5.2568480078
  F        -2.0080387540       -3.0949348103       -6.8200705494
  C         0.0874000504       -1.4120128650       -1.1702517521
  C        -0.1127410840       -2.5638643312       -0.1817162929
  C         0.4178412223       -2.0529217926        1.1736472295
  C         1.0117659346       -0.6758724993        0.8320558933
  O         1.1823876801       -0.6963400368       -0.6146554003
  O         4.1875882819       -2.1309919011       -5.8480844592
  C         4.6519019394       -2.1567591671       -7.0680262066
  C         4.6829205070       -1.1113808417       -7.9817891950
  C         4.0291813169        0.0680583194       -7.6347370076
  O         3.5015090202        0.3975393268       -6.4993999524
  C         4.1795846766        1.3816126826       -8.4223757309
  F         4.2089688643        1.2712356786       -9.7704784581
  F         5.3815572747        1.9182320295       -8.0483324823
  F         3.2328535745        2.3354138602       -8.2165053445
  C         5.5067813861       -3.4294118043       -7.1997537781
  F         5.1604091777       -4.5040428519       -6.4341291105
  F         6.7752268968       -3.0804242203       -6.8122432626
  F         5.6077319084       -3.9703883540       -8.4358002029
  H        -0.0341440211        2.7133806687      -11.9128734512
  H         1.0562531218        2.0576343461       -9.7924279320
  H        -1.8870454882       -1.1984097481       -9.3595384211
  H        -2.9534858145       -0.4631419726      -11.4691325318
  H        -0.7702779320        2.7298127400       -7.6971506722
  H         0.3140112611        3.8319086701       -5.4186581520
  H         0.5702116707       -2.3453602551      -10.2742503834
  H         1.2430558761       -4.7652065762       -9.1191199074
  H         3.3511368155       -4.9517251248       -1.8329620298
  H         1.9272003140       -6.3092269783       -3.8240198228
  H         1.0132225449        3.1283248143       -2.0041055962
  H         1.1177904702        5.5577678048       -1.3210821960
  H         3.8999630718        6.3323750329       -4.6354518040
  H         3.7912715192        3.8979970520       -5.2764464016
  H         4.4032309292        2.4356895783       -2.1046215664
  H         5.5380850831       -0.0389041962       -1.4040779219
  H         4.1578785057       -2.0960839494        0.0109183597
  H         6.0367330190       -3.0578749992        1.4094779080
  H         7.9708334627       -4.5172301409       -2.2573459937
  H         6.0844482026       -3.5570354982       -3.6197513949
  H        -0.8131637472       -5.5005483891       -6.4224674207
  H        -1.4283914554       -7.8833108765       -6.9030637162
  H         2.8403729404       -8.9125432528       -7.0929261716
  H         3.4309108419       -6.5131944764       -6.5969796170
  H        -1.6996407489       -2.9040814617       -2.7025801989
  H        -0.8252403323       -0.7559746141       -1.0688482714
  H        -1.1520169890       -2.9454804873       -0.0912731516
  H         0.4360069842       -3.4822701003       -0.4830695058
  H        -0.3507419454       -1.9883800238        1.9722014767
  H         1.1722640621       -2.7194483219        1.6402180592
  H         0.3154662335        0.1424331714        1.1124010911
  H         1.9724960673       -0.4352993978        1.3194825015
  H         5.4835116774       -1.0994670832       -8.7373965014
     113
 i =        3, E =      -883.2900303228
 Cl        -2.2746003698        1.6196611564      -13.2924458008
  C        -1.5417603336        1.1533370009      -11.8154682517
  C        -0.4268284114        1.8901444489      -11.3297279824
  C         0.1641264583        1.4965270401      -10.1254522530
  C        -0.3054104549        0.3391170092       -9.4276974314
  C        -1.4314512847       -0.3737592907       -9.9355666023
  C        -2.0697751866        0.0373086313      -11.1074480557
  C         0.3658299213       -0.1162051746       -8.1872204919
  C         0.4720473677        0.9064674339       -7.1385844663
  C        -0.0761279488        2.2654161909       -7.0307249899
  C         0.4413420193        2.8456109145       -5.8539497716
  C         1.3107383183        1.8508185515       -5.2395051122
  N         1.1709674754        0.6998043450       -5.9727187856
 Dy         2.0104985696       -1.1121187781       -5.2553557640
  N         1.3712084959       -2.1571597478       -7.0789398784
  C         0.8204126298       -1.5335728057       -8.1765930455
  C         0.7867213034       -2.5348570736       -9.2442472041
  C         1.1540326136       -3.7640769922       -8.6840233957
  C         1.4171774173       -3.5215498527       -7.2805811792
  C         1.6199508752       -4.4871471102       -6.2287903432
  C         2.0387421901       -4.3029544899       -4.8573623589
  N         2.4047081227       -3.0700978657       -4.3891947432
  C         3.1725693296       -3.2498421332       -3.2661924036
  C         2.9842534913       -4.6179689734       -2.7967344343
  C         2.2530464341       -5.2846332898       -3.7951598706
  C         3.9932375378       -2.2376312092       -2.6507346412
  C         3.9717163759       -0.8077021557       -2.7766994982
  N         3.1611006740       -0.1994800929       -3.6672186869
  C         3.1385896737        1.1472667248       -3.4423859649
  C         2.2493086218        2.0379337393       -4.1408569614
  C         2.3611528024        3.4466864262       -3.6857859601
  C         1.6304838498        3.8649138840       -2.5505010547
  C         1.6889560934        5.2096613445       -2.1824545633
  C         2.5004190831        6.0953015985       -2.9471616247
  C         3.2743701576        5.6493087356       -4.0575891006
  C         3.2064513033        4.3057358621       -4.4272725174
 Cl         2.5539662633        7.7555390862       -2.5159696492
  C         4.1818187059        1.4404817071       -2.4571331918
  C         4.7362486295        0.2180365333       -2.0777281023
  C         5.0681828591       -2.7922578633       -1.8284727069
  C         5.0418710119       -2.5998289351       -0.4316176697
  C         6.0701863296       -3.1471909832        0.3297537362
  C         7.1229659553       -3.8370553998       -0.3367233990
  C         7.1475031647       -4.0139288897       -1.7501795133
  C         6.0926875632       -3.5071187108       -2.5037620941
 Cl         8.4081353134       -4.4843786986        0.5937450040
  C         1.3253126516       -5.9043393230       -6.5457612461
  C        -0.0414079540       -6.2707213607       -6.6105224006
  C        -0.3763085702       -7.6029946382       -6.8430646386
  C         0.6733113525       -8.5485982021       -7.0165311181
  C         2.0474712015       -8.1805284149       -6.9280617948
  C         2.3749412780       -6.8483652402       -6.6686123980
 Cl         0.2619021611      -10.1829791513       -7.3323599256
  O         0.7548986045       -0.7969066433       -3.3064552035
  C         0.0779108368       -1.5968838543       -2.5916876629
  C        -0.8235628045       -2.4519963143       -3.3161057184
  C        -1.0162898615       -2.3989615594       -4.7137457120
  O        -0.3188296401       -1.5999141078       -5.4067786275
  C        -2.2249615737       -3.0133464852       -5.4464652557
  F        -2.5403782220       -4.2875988342       -5.0827532958
  F        -3.2662989984       -2.1560647722       -5.2766022718
  F        -1.9544246891       -3.0816000825       -6.7845163081
  C         0.0252588066       -1.4143391886       -1.0995054547
  C        -0.1176274244       -2.6237655856       -0.1512564897
  C         0.4219933675       -2.0554431579        1.1908986597
  C         1.0041927213       -0.6752373842        0.8128085095
  O         1.1837887584       -0.7026121804       -0.6412840738
  O         4.1527003678       -2.0833785802       -5.8906567223
  C         4.6901670044       -2.1972143428       -7.0310889799
  C         4.6548318242       -1.1085760886       -7.9292546011
  C         4.0492770765        0.1383559736       -7.6267940771
  O         3.5210043022        0.3152201109       -6.5032303648
  C         4.2407306037        1.4099240604       -8.4766181905
  F         4.2169594762        1.2028048588       -9.8169455918
  F         5.4096119579        1.9705596066       -8.0507174065
  F         3.2351044006        2.2855940560       -8.1585793241
  C         5.5777120896       -3.4435112357       -7.2293930118
  F         5.1106518809       -4.4487348245       -6.4233160637
  F         6.8216730177       -3.0844984075       -6.7857573930
  F         5.5982745060       -3.9245279090       -8.4933038520
  H        -0.0231283598        2.7212890670      -11.9127874091
  H         1.0446035591        2.0425047689       -9.7743629943
  H        -1.8613906740       -1.1974362737       -9.3582656488
  H        -2.9673474840       -0.4701050275      -11.4666491472
  H        -0.7744725802        2.7343131365       -7.7134696452
  H         0.2952090948        3.8415395177       -5.4426445285
  H         0.5554582388       -2.3429510563      -10.2860093196
  H         1.2236265832       -4.7448644370       -9.1502248232
  H         3.3575941423       -4.9829804487       -1.8440839166
  H         1.9356799657       -6.3217827207       -3.8132223007
  H         1.0141384934        3.1409071783       -2.0048452888
  H         1.1223234684        5.5746006519       -1.3243033295
  H         3.8976523739        6.3437014996       -4.6239814186
  H         3.7839163459        3.9065868608       -5.2702754808
  H         4.4210165436        2.4350597271       -2.0969208334
  H         5.5390706748       -0.0034023378       -1.3840965125
  H         4.1819009405       -2.0886810948        0.0161826769
  H         6.0536614176       -3.0726073519        1.4173996665
  H         7.9832496780       -4.5145495038       -2.2436468028
  H         6.0754679904       -3.5712532314       -3.5996697041
  H        -0.8108221094       -5.5118022773       -6.4372823413
  H        -1.4247099338       -7.9017513918       -6.8996288275
  H         2.8297075183       -8.9237994308       -7.0943801497
  H         3.4190514388       -6.5231767147       -6.5927035704
  H        -1.6221296466       -2.9515231625       -2.7133248794
  H        -0.8577320257       -0.7278523240       -1.0358786286
  H        -1.1721043453       -2.9254764733       -0.1039278619
  H         0.4615223773       -3.4914199933       -0.5050158721
  H        -0.3653032900       -1.9735084024        1.9561930212
  H         1.1824618004       -2.7289091934        1.6162499960
  H         0.3137583909        0.1463488205        1.0969066232
  H         1.9697687719       -0.4402681224        1.2906795371
  H         5.3879836341       -1.1281701152       -8.7763215104
     113
 i =        4, E =      -883.3160470597
 Cl        -2.2762228648        1.6230586783      -13.2939081235
  C        -1.5452140958        1.1532210284      -11.8176478387
  C        -0.4297426751        1.8865008882      -11.3317798151
  C         0.1611744517        1.4919203041      -10.1303027519
  C        -0.3050672795        0.3359216093       -9.4313428902
  C        -1.4311802466       -0.3735417674       -9.9420651805
  C        -2.0701134334        0.0377209223      -11.1104063080
  C         0.3579126853       -0.1072192265       -8.2022062987
  C         0.4613507826        0.8945793203       -7.1390591820
  C        -0.0673443472        2.2600491931       -7.0370340544
  C         0.4575277411        2.8410048198       -5.8738682285
  C         1.3158501995        1.8520043321       -5.2434665914
  N         1.1698611248        0.7092428748       -5.9850557658
 Dy         2.0316029025       -1.1039176573       -5.2508192164
  N         1.3639667773       -2.1484693148       -7.0803751328
  C         0.8346451263       -1.5126970788       -8.1776884962
  C         0.7755698762       -2.5279403692       -9.2356717390
  C         1.1276572732       -3.7563800684       -8.6701956385
  C         1.4287544715       -3.5160716982       -7.2716599507
  C         1.6235458978       -4.4889433807       -6.2297607562
  C         2.0254269033       -4.2903169819       -4.8615479631
  N         2.3989552300       -3.0698741200       -4.3784910712
  C         3.1445719742       -3.2349303177       -3.2425203499
  C         2.9985613257       -4.6198051424       -2.8164239607
  C         2.2756149397       -5.2783242755       -3.8131889207
  C         3.9918829077       -2.2453544653       -2.6410917042
  C         3.9807451431       -0.8198597006       -2.7837574591
  N         3.1549284848       -0.1942406128       -3.6418764208
  C         3.1486208255        1.1593201924       -3.4681895859
  C         2.2463365910        2.0432407079       -4.1447110999
  C         2.3563580815        3.4458282439       -3.6912873004
  C         1.6330641133        3.8765137419       -2.5584138778
  C         1.6964980781        5.2197627072       -2.1806680832
  C         2.5036611275        6.1122522131       -2.9397620245
  C         3.2723082163        5.6602677433       -4.0500666565
  C         3.1912535014        4.3182144252       -4.4231822486
 Cl         2.5555211935        7.7732271397       -2.5102859939
  C         4.1662368492        1.4360759129       -2.4526365971
  C         4.7141206017        0.2153579654       -2.0672589995
  C         5.0627319817       -2.7945922158       -1.8248077546
  C         5.0571117202       -2.6060650810       -0.4279164698
  C         6.0840185560       -3.1556819399        0.3363307564
  C         7.1400051286       -3.8466126512       -0.3231974139
  C         7.1549866081       -4.0156975197       -1.7365716679
  C         6.0971701963       -3.5043047168       -2.4837202932
 Cl         8.4256257016       -4.4933728244        0.6072520770
  C         1.3227208285       -5.8963741465       -6.5581914940
  C        -0.0361590620       -6.2795761186       -6.6281109768
  C        -0.3735875812       -7.6146393289       -6.8490316782
  C         0.6688036264       -8.5667867697       -7.0186343972
  C         2.0383967644       -8.1874804169       -6.9342277792
  C         2.3601821741       -6.8509586545       -6.6823737959
 Cl         0.2606320483      -10.2022164985       -7.3379750020
  O         0.8424991909       -0.7948056583       -3.2968470965
  C         0.0603002079       -1.5786623779       -2.6216125695
  C        -0.8551616252       -2.5210607151       -3.2708350705
  C        -1.0224277954       -2.3320666594       -4.7033411917
  O        -0.2863795094       -1.6053648995       -5.4752715445
  C        -2.2265299761       -3.0059394781       -5.4426293283
  F        -2.5533995861       -4.2609933674       -5.0236555530
  F        -3.2989699757       -2.1801770227       -5.2862531919
  F        -1.9170335289       -3.0531131824       -6.7802311961
  C         0.0054578522       -1.4089363087       -1.1075033075
  C        -0.1320211786       -2.6315259049       -0.1564809920
  C         0.4189393828       -2.0708243033        1.1958110940
  C         0.9978151492       -0.6816857530        0.8223997407
  O         1.1685542308       -0.6987730069       -0.6352505675
  O         4.0897207109       -2.1287848409       -5.8537166964
  C         4.6967728302       -2.1432439909       -6.9969025730
  C         4.6820960370       -1.1301544955       -8.0188884495
  C         4.0952712638        0.1166273573       -7.5781602908
  O         3.4516290918        0.3284209372       -6.4770422673
  C         4.2570949305        1.3932450417       -8.4575845650
  F         4.2587859726        1.1667122300       -9.7951533100
  F         5.4374405075        1.9970661975       -8.1072950318
  F         3.2441627803        2.2714815765       -8.1553168118
  C         5.5725413622       -3.4145809461       -7.2277336155
  F         5.1107563509       -4.4227929411       -6.4187127667
  F         6.8480447056       -3.1179603471       -6.8144272907
  F         5.6268055250       -3.8775341263       -8.4956905968
  H        -0.0236226694        2.7208279374      -11.9070566965
  H         1.0378081414        2.0325395424       -9.7589137581
  H        -1.8432777900       -1.2033911008       -9.3600533780
  H        -2.9682103714       -0.4692789985      -11.4663257376
  H        -0.7703451080        2.7336974304       -7.7200616716
  H         0.2743877400        3.8368792654       -5.4745988489
  H         0.5428559286       -2.3457396148      -10.2852011918
  H         1.2064186257       -4.7186124763       -9.1751142791
  H         3.3559132638       -5.0104998713       -1.8663062631
  H         1.9468895389       -6.3162888462       -3.8057802432
  H         1.0185476217        3.1587362535       -2.0061715598
  H         1.1267527205        5.5907936031       -1.3267495593
  H         3.8971779754        6.3571852405       -4.6110714219
  H         3.7739777008        3.9222421131       -5.2618824662
  H         4.4399267434        2.4261273710       -2.0936032057
  H         5.5325522909        0.0351296719       -1.3748404078
  H         4.2078349937       -2.0850700306        0.0251362799
  H         6.0726584479       -3.0825871494        1.4246447957
  H         7.9929319689       -4.5164230435       -2.2259420588
  H         6.0731838356       -3.5876350687       -3.5760978368
  H        -0.8105338763       -5.5275492214       -6.4556558446
  H        -1.4203044523       -7.9221874842       -6.8968203647
  H         2.8197518223       -8.9340588284       -7.0909900260
  H         3.4051114252       -6.5339549216       -6.5936820603
  H        -1.6404846789       -3.0109108446       -2.6817354330
  H        -0.8778105721       -0.7269381712       -0.9832646300
  H        -1.1850058118       -2.9210458847       -0.0952234551
  H         0.4731845965       -3.4754162163       -0.5132367407
  H        -0.3780314925       -1.9571063170        1.9386484503
  H         1.1978774979       -2.7294002656        1.5962723787
  H         0.3030040437        0.1427953303        1.0707467898
  H         1.9817892658       -0.4550864110        1.2608166564
  H         5.3883226169       -1.1432093257       -8.8617320643
     113
 i =        5, E =      -883.3295006280
 Cl        -2.2816716493        1.6279796237      -13.3010429674
  C        -1.5496115555        1.1553784030      -11.8250558959
  C        -0.4283120719        1.8748804167      -11.3299678694
  C         0.1592487285        1.4979542810      -10.1205925890
  C        -0.3028380715        0.3330505310       -9.4304164517