srun: Job 11423735 step creation temporarily disabled, retrying (Requested nodes are busy)
srun: Step created for job 11423735
 DBCSR| Multiplication driver                                               XSMM
 DBCSR| Multrec recursion limit                                              512
 DBCSR| Multiplication stack size                                           1000
 DBCSR| Maximum elements for images                                    UNLIMITED
 DBCSR| Multiplicative factor virtual images                                   1
 DBCSR| Randmat seed                                                    12341313
 DBCSR| Multiplication size stacks                                             3
 DBCSR| Number of 3D layers                                               SINGLE
 DBCSR| Use MPI memory allocation                                              T
 DBCSR| Use RMA algorithm                                                      F
 DBCSR| Use Communication thread                                               T
 DBCSR| Communication thread load                                             87


  **** **** ******  **  PROGRAM STARTED AT               2023-04-08 04:03:35.875
 ***** ** ***  *** **   PROGRAM STARTED ON        node145.pri.kelvin2.alces.netw
 **    ****   ******    PROGRAM STARTED BY                              40265864
 ***** **    ** ** **   PROGRAM PROCESS ID                                 96561
  **** **  *******  **  PROGRAM STARTED IN /mnt/scratch2/users/40265864/MSc_ML_M
                                           M/ln_replacements/xyz/Dy_L10_L19_L21/
                                           geometry_optimisation_2/run-6

 CP2K| version string:                                          CP2K version 4.1
 CP2K| source code revision number:                                    svn:17462
 CP2K| cp2kflags: libint fftw3 libxc parallel mpi3 scalapack libxsmm libderiv_ma
 CP2K|            x_am1=5 libint_max_am=6
 CP2K| is freely available from                            https://www.cp2k.org/
 CP2K| Program compiled at                          Mon 24 Oct 18:14:20 BST 2022
 CP2K| Program compiled on                      login1.pri.kelvin2.alces.network
 CP2K| Program compiled for                                                local
 CP2K| Data directory path                      /users/40265864/source/cp2k/data
 CP2K| Input file name                                         geo-opt-relax.inp

 GLOBAL| Force Environment number                                              1
 GLOBAL| Basis set file name                                 ../BASIS_MOLOPT_UCL
 GLOBAL| Potential file name                                        ../POTENTIAL
 GLOBAL| MM Potential file name                                     MM_POTENTIAL
 GLOBAL| Coordinate file name                           ../../Dy_L10_L19_L21.xyz
 GLOBAL| Method name                                                        CP2K
 GLOBAL| Project name                                                 dy_complex
 GLOBAL| Preferred FFT library                                             FFTW3
 GLOBAL| Preferred diagonalization lib.                                       SL
 GLOBAL| Run type                                                        GEO_OPT
 GLOBAL| All-to-all communication in single precision                          F
 GLOBAL| FFTs using library dependent lengths                                  F
 GLOBAL| Global print level                                                  LOW
 GLOBAL| Total number of message passing processes                           121
 GLOBAL| Number of threads for this process                                    1
 GLOBAL| This output is from process                                           0
 GLOBAL| CPU model name :  AMD EPYC 7702 64-Core Processor

 MEMORY| system memory details [Kb]
 MEMORY|                        rank 0           min           max       average
 MEMORY| MemTotal            792056772     792056772     792056772     792056772
 MEMORY| MemFree             679313696     679313016     679314020     679313650
 MEMORY| Buffers                351808        351808        351808        351808
 MEMORY| Cached               32353696      32353684      32353696      32353695
 MEMORY| Slab                 65844296      65844296      65844296      65844296
 MEMORY| SReclaimable         64208248      64208248      64208248      64208248
 MEMORY| MemLikelyFree       776227448     776226768     776227760     776227402


 GENERATE|  Preliminary Number of Bonds generated:                             0
 GENERATE|  Achieved consistency in connectivity generation.

 *******************************************************************************
 *******************************************************************************
 **                                                                           **
 **     #####                         ##              ##                      **
 **    ##   ##            ##          ##              ##                      **
 **   ##     ##                       ##            ######                    **
 **   ##     ##  ##   ##  ##   #####  ##  ##   ####   ##    #####    #####    **
 **   ##     ##  ##   ##  ##  ##      ## ##   ##      ##   ##   ##  ##   ##   **
 **   ##  ## ##  ##   ##  ##  ##      ####     ###    ##   ######   ######    **
 **    ##  ###   ##   ##  ##  ##      ## ##      ##   ##   ##       ##        **
 **     #######   #####   ##   #####  ##  ##  ####    ##    #####   ##        **
 **           ##                                                    ##        **
 **                                                                           **
 **                                                ... make the atoms dance   **
 **                                                                           **
 **            Copyright (C) by CP2K developers group (2000 - 2016)           **
 **                                                                           **
 *******************************************************************************


 SCF PARAMETERS         Density guess:                                   RESTART
                        --------------------------------------------------------
                        max_scf:                                             200
                        max_scf_history:                                       0
                        max_diis:                                              4
                        --------------------------------------------------------
                        eps_scf:                                        5.00E-05
                        eps_scf_history:                                0.00E+00
                        eps_diis:                                       1.00E-01
                        eps_eigval:                                     1.00E-05
                        --------------------------------------------------------
                        level_shift [a.u.]:                                 0.00
                        --------------------------------------------------------
                        No outer SCF

 *******************************************************************************
 ***                     STARTING GEOMETRY OPTIMIZATION                      ***
 ***                                   BFGS                                  ***
 *******************************************************************************

 Spin 1

 Number of electrons:                                                        212
 Number of occupied orbitals:                                                212
 Number of molecular orbitals:                                               212

 Spin 2

 Number of electrons:                                                        207
 Number of occupied orbitals:                                                207
 Number of molecular orbitals:                                               207

 Number of orbital functions:                                               1234
 Number of independent orbital functions:                                   1234

 Extrapolation method: initial_guess

 *** WARNING in qs_initial_guess.F:262 :: User requested to restart the   ***
 *** wavefunction from the file named: dy_complex-RESTART.wfn. This file  ***
 *** does not exist. Please check the existence of the file or change     ***
 *** properly the value of the keyword WFN_RESTART_FILE_NAME. Calculation ***
 *** continues using ATOMIC GUESS.                                        ***



 SCF WAVEFUNCTION OPTIMIZATION

  ----------------------------------- OT ---------------------------------------
  Minimizer      : DIIS                : direct inversion
                                         in the iterative subspace
                                         using   7 DIIS vectors
                                         safer DIIS on
  Preconditioner : FULL_SINGLE_INVERSE : inversion of 
                                         H + eS - 2*(Sc)(c^T*H*c+const)(Sc)^T
  Precond_solver : DEFAULT
  stepsize       :    0.08000000                  energy_gap     :    0.08000000
  eps_taylor     :   0.10000E-15                  max_taylor     :             4
  ----------------------------------- OT ---------------------------------------

  Step     Update method      Time    Convergence         Total energy    Change
  ------------------------------------------------------------------------------
     1 OT DIIS     0.80E-01    3.1     0.01715507      -845.6113350710 -8.46E+02
     2 OT DIIS     0.80E-01    4.0     0.01227979      -855.5761626486 -9.96E+00
     3 OT DIIS     0.80E-01    4.0     0.00990869      -862.6566430100 -7.08E+00
     4 OT DIIS     0.80E-01    3.9     0.00708653      -870.9106661019 -8.25E+00
     5 OT DIIS     0.80E-01    4.5     0.00487178      -875.9602471937 -5.05E+00
     6 OT DIIS     0.80E-01    3.9     0.00373806      -878.0888529206 -2.13E+00
     7 OT DIIS     0.80E-01    4.1     0.00294070      -879.2140451051 -1.13E+00
     8 OT DIIS     0.80E-01   11.2     0.00216321      -880.2231077695 -1.01E+00
     9 OT DIIS     0.80E-01   11.6     0.00168281      -880.8183078381 -5.95E-01
    10 OT DIIS     0.80E-01   10.0     0.00131910      -881.2744019976 -4.56E-01
    11 OT DIIS     0.80E-01    4.0     0.00108350      -881.5395064458 -2.65E-01
    12 OT DIIS     0.80E-01    4.0     0.00091745      -881.7337690347 -1.94E-01
    13 OT DIIS     0.80E-01    4.0     0.00078599      -881.9003862611 -1.67E-01
    14 OT DIIS     0.80E-01    4.0     0.00068948      -882.0216117824 -1.21E-01
    15 OT DIIS     0.80E-01    4.0     0.00061123      -882.1186897749 -9.71E-02
    16 OT DIIS     0.80E-01    3.9     0.00054352      -882.2052506298 -8.66E-02
    17 OT DIIS     0.80E-01    4.0     0.00054116      -882.2514802198 -4.62E-02
    18 OT DIIS     0.80E-01    3.9     0.00053429      -882.2729592151 -2.15E-02
    19 OT DIIS     0.80E-01    3.9     0.00049139      -882.3110335421 -3.81E-02
    20 OT DIIS     0.80E-01    3.9     0.00047785      -882.3348120404 -2.38E-02
    21 OT DIIS     0.80E-01    3.9     0.00046218      -882.3852688249 -5.05E-02
    22 OT DIIS     0.80E-01    4.0     0.00044465      -882.4197912247 -3.45E-02
    23 OT DIIS     0.80E-01    4.0     0.00041578      -882.4719833349 -5.22E-02
    24 OT SD       0.80E-01    3.9     0.00041584      -882.4778269011 -5.84E-03
    25 OT DIIS     0.80E-01    3.9     0.00041136      -882.4849382936 -7.11E-03
    26 OT DIIS     0.80E-01    4.0     0.00043014      -882.5048684134 -1.99E-02
    27 OT DIIS     0.80E-01    3.9     0.00040665      -882.5103530424 -5.48E-03
    28 OT SD       0.80E-01    4.0     0.00038852      -882.5258131952 -1.55E-02
    29 OT DIIS     0.80E-01    3.9     0.00038491      -882.5320260088 -6.21E-03
    30 OT DIIS     0.80E-01    3.9     0.00034492      -882.5912883935 -5.93E-02
    31 OT DIIS     0.80E-01    3.9     0.00039656      -882.5966503904 -5.36E-03
    32 OT DIIS     0.80E-01    3.9     0.00038996      -882.5961902833  4.60E-04
    33 OT DIIS     0.80E-01    4.0     0.00031406      -882.6418339738 -4.56E-02
    34 OT DIIS     0.80E-01    3.9     0.00029311      -882.6571162821 -1.53E-02
    35 OT SD       0.80E-01    4.0     0.00028942      -882.6746184993 -1.75E-02
    36 OT DIIS     0.80E-01    4.0     0.00027711      -882.6780026658 -3.38E-03
    37 OT SD       0.80E-01    4.0     0.00020874      -882.7215224015 -4.35E-02
    38 OT DIIS     0.80E-01    4.0     0.00019514      -882.7232577969 -1.74E-03
    39 OT DIIS     0.80E-01    3.9     0.00016841      -882.7341510585 -1.09E-02
    40 OT DIIS     0.80E-01    4.0     0.00015291      -882.7427266629 -8.58E-03
    41 OT DIIS     0.80E-01    3.9     0.00014456      -882.7487192036 -5.99E-03
    42 OT DIIS     0.80E-01    4.0     0.00013417      -882.7582441874 -9.52E-03
    43 OT DIIS     0.80E-01    4.0     0.00013094      -882.7596206610 -1.38E-03
    44 OT DIIS     0.80E-01    4.0     0.00012080      -882.7665115954 -6.89E-03
    45 OT DIIS     0.80E-01    3.9     0.00011667      -882.7699614125 -3.45E-03
    46 OT DIIS     0.80E-01    3.9     0.00010996      -882.7754486543 -5.49E-03
    47 OT DIIS     0.80E-01    4.0     0.00010265      -882.7822672602 -6.82E-03
    48 OT DIIS     0.80E-01    4.0     0.00009858      -882.7859558229 -3.69E-03
    49 OT DIIS     0.80E-01    4.0     0.00009323      -882.7913297192 -5.37E-03
    50 OT DIIS     0.80E-01    4.0     0.00009145      -882.7934113615 -2.08E-03
    51 OT DIIS     0.80E-01    4.0     0.00008511      -882.7984264391 -5.02E-03
    52 OT DIIS     0.80E-01    3.9     0.00007926      -882.8032027413 -4.78E-03
    53 OT DIIS     0.80E-01    4.0     0.00007670      -882.8052820162 -2.08E-03
    54 OT DIIS     0.80E-01    4.0     0.00007364      -882.8084584640 -3.18E-03
    55 OT DIIS     0.80E-01    3.9     0.00006897      -882.8105689515 -2.11E-03
    56 OT DIIS     0.80E-01    3.9     0.00006627      -882.8121970007 -1.63E-03
    57 OT DIIS     0.80E-01    3.9     0.00006193      -882.8150438017 -2.85E-03
    58 OT DIIS     0.80E-01    3.9     0.00006006      -882.8168927347 -1.85E-03
    59 OT SD       0.80E-01    4.0     0.00005659      -882.8194877514 -2.60E-03
    60 OT DIIS     0.80E-01    3.9     0.00005533      -882.8196185709 -1.31E-04
    61 OT DIIS     0.80E-01    3.9     0.00006114      -882.8206192962 -1.00E-03
    62 OT DIIS     0.80E-01    3.9     0.00004970      -882.8229970986 -2.38E-03

  *** SCF run converged in    62 steps ***


  Electronic density on regular grids:       -418.9999999911        0.0000000089
  Core density on regular grids:              421.9999999732       -0.0000000268
  Total charge density on r-space grids:        2.9999999821
  Total charge density g-space grids:           2.9999999821

  Overlap energy of the core charge distribution:               0.00002395397309
  Self energy of the core charge distribution:              -2048.46367124836706
  Core Hamiltonian energy:                                    607.63654993516082
  Hartree energy:                                             764.25685709965649
  Exchange-correlation energy:                               -206.25275683899625

  Total energy:                                              -882.82299709857296

  Integrated absolute spin density  :                               8.1905339622
  Ideal and single determinant S**2 :                    8.750000      10.561836

 ENERGY| Total FORCE_EVAL ( QS ) energy (a.u.):             -882.824251227793411


 --------  Informations at step =     0 ------------
  Optimization Method        =                 BFGS
  Total Energy               =      -882.8242512278
  Used time                  =              271.832
 ---------------------------------------------------

 --------------------------
 OPTIMIZATION STEP:      1
 --------------------------

  Step is scaled; Scaling factor =  0.86618

 Spin 1

 Number of electrons:                                                        212
 Number of occupied orbitals:                                                212
 Number of molecular orbitals:                                               212

 Spin 2

 Number of electrons:                                                        207
 Number of occupied orbitals:                                                207
 Number of molecular orbitals:                                               207

 Number of orbital functions:                                               1234
 Number of independent orbital functions:                                   1234

 Extrapolation method: ASPC


 SCF WAVEFUNCTION OPTIMIZATION

  ----------------------------------- OT ---------------------------------------
  Minimizer      : DIIS                : direct inversion
                                         in the iterative subspace
                                         using   7 DIIS vectors
                                         safer DIIS on
  Preconditioner : FULL_SINGLE_INVERSE : inversion of 
                                         H + eS - 2*(Sc)(c^T*H*c+const)(Sc)^T
  Precond_solver : DEFAULT
  stepsize       :    0.08000000                  energy_gap     :    0.08000000
  eps_taylor     :   0.10000E-15                  max_taylor     :             4
  ----------------------------------- OT ---------------------------------------

  Step     Update method      Time    Convergence         Total energy    Change
  ------------------------------------------------------------------------------
     1 OT DIIS     0.80E-01    3.0     0.00240209      -882.5305040760 -8.83E+02
     2 OT DIIS     0.80E-01    4.0     0.00177994      -882.7341705640 -2.04E-01
     3 OT DIIS     0.80E-01    4.0     0.00121534      -882.9456049446 -2.11E-01
     4 OT DIIS     0.80E-01    4.0     0.00138794      -883.0021469427 -5.65E-02
     5 OT DIIS     0.80E-01    4.0     0.00051234      -883.0476221770 -4.55E-02
     6 OT DIIS     0.80E-01    4.0     0.00033670      -883.0609996913 -1.34E-02
     7 OT DIIS     0.80E-01    3.9     0.00025406      -883.0671092264 -6.11E-03
     8 OT DIIS     0.80E-01    3.9     0.00021518      -883.0697419518 -2.63E-03
     9 OT DIIS     0.80E-01    4.0     0.00016379      -883.0716743452 -1.93E-03
    10 OT DIIS     0.80E-01    4.0     0.00015046      -883.0731840796 -1.51E-03
    11 OT DIIS     0.80E-01    4.0     0.00013009      -883.0743072428 -1.12E-03
    12 OT DIIS     0.80E-01    3.9     0.00011658      -883.0756205988 -1.31E-03
    13 OT DIIS     0.80E-01    3.9     0.00011155      -883.0769436479 -1.32E-03
    14 OT DIIS     0.80E-01    3.9     0.00011093      -883.0778431669 -9.00E-04
    15 OT DIIS     0.80E-01    3.9     0.00010030      -883.0790623409 -1.22E-03
    16 OT DIIS     0.80E-01    4.8     0.00009360      -883.0805450713 -1.48E-03
    17 OT DIIS     0.80E-01   10.8     0.00008924      -883.0818615181 -1.32E-03
    18 OT DIIS     0.80E-01   10.9     0.00008326      -883.0829642695 -1.10E-03
    19 OT DIIS     0.80E-01   10.9     0.00007765      -883.0839656248 -1.00E-03
    20 OT DIIS     0.80E-01   10.9     0.00007354      -883.0848562938 -8.91E-04
    21 OT DIIS     0.80E-01   10.8     0.00007108      -883.0856281534 -7.72E-04
    22 OT DIIS     0.80E-01    4.0     0.00007014      -883.0861076049 -4.79E-04
    23 OT DIIS     0.80E-01    3.9     0.00006718      -883.0866533405 -5.46E-04
    24 OT DIIS     0.80E-01    3.9     0.00006513      -883.0872617219 -6.08E-04
    25 OT DIIS     0.80E-01    4.0     0.00006267      -883.0878574672 -5.96E-04
    26 OT DIIS     0.80E-01    3.9     0.00006038      -883.0884841390 -6.27E-04
    27 OT DIIS     0.80E-01    4.0     0.00005903      -883.0890090608 -5.25E-04
    28 OT DIIS     0.80E-01    4.0     0.00005744      -883.0894693094 -4.60E-04
    29 OT DIIS     0.80E-01    4.0     0.00005551      -883.0899713043 -5.02E-04
    30 OT DIIS     0.80E-01    4.0     0.00005431      -883.0904593951 -4.88E-04
    31 OT DIIS     0.80E-01   11.4     0.00005353      -883.0908540609 -3.95E-04
    32 OT DIIS     0.80E-01    4.8     0.00005198      -883.0911245818 -2.71E-04
    33 OT DIIS     0.80E-01    4.0     0.00005123      -883.0913082404 -1.84E-04
    34 OT DIIS     0.80E-01    4.0     0.00005041      -883.0915535694 -2.45E-04
    35 OT DIIS     0.80E-01    5.0     0.00004807      -883.0919590443 -4.05E-04

  *** SCF run converged in    35 steps ***


  Electronic density on regular grids:       -418.9999999912        0.0000000088
  Core density on regular grids:              421.9999999732       -0.0000000268
  Total charge density on r-space grids:        2.9999999820
  Total charge density g-space grids:           2.9999999820

  Overlap energy of the core charge distribution:               0.00001792973035
  Self energy of the core charge distribution:              -2048.46367124836706
  Core Hamiltonian energy:                                    605.07993603686668
  Hartree energy:                                             766.05048605570437
  Exchange-correlation energy:                               -205.75872781818555

  Total energy:                                              -883.09195904425110

  Integrated absolute spin density  :                               7.4695495629
  Ideal and single determinant S**2 :                    8.750000       9.868661

 ENERGY| Total FORCE_EVAL ( QS ) energy (a.u.):             -883.092306166518483


 --------  Informations at step =     1 ------------
  Optimization Method        =                 BFGS
  Total Energy               =      -883.0923061665
  Real energy change         =        -0.2680549387
  Predicted change in energy =        -0.3339382617
  Scaling factor             =         0.8661800676
  Step size                  =         0.5669178399
  Trust radius               =         0.5669178399
  Decrease in energy         =                  YES
  Used time                  =              188.286

  Convergence check :
  Max. step size             =         0.5669178399
  Conv. limit for step size  =         0.1000000000
  Convergence in step size   =                   NO
  RMS step size              =         0.0990740316
  Conv. limit for RMS step   =         0.0100000000
  Convergence in RMS step    =                   NO
  Max. gradient              =         0.1138681278
  Conv. limit for gradients  =         0.1000000000
  Conv. for gradients        =                   NO
  RMS gradient               =         0.0205482327
  Conv. limit for RMS grad.  =         0.0100000000
  Conv. for gradients        =                   NO
 ---------------------------------------------------

 --------------------------
 OPTIMIZATION STEP:      2
 --------------------------

 Spin 1

 Number of electrons:                                                        212
 Number of occupied orbitals:                                                212
 Number of molecular orbitals:                                               212

 Spin 2

 Number of electrons:                                                        207
 Number of occupied orbitals:                                                207
 Number of molecular orbitals:                                               207

 Number of orbital functions:                                               1234
 Number of independent orbital functions:                                   1234

 Extrapolation method: ASPC


 SCF WAVEFUNCTION OPTIMIZATION

  ----------------------------------- OT ---------------------------------------
  Minimizer      : DIIS                : direct inversion
                                         in the iterative subspace
                                         using   7 DIIS vectors
                                         safer DIIS on
  Preconditioner : FULL_SINGLE_INVERSE : inversion of 
                                         H + eS - 2*(Sc)(c^T*H*c+const)(Sc)^T
  Precond_solver : DEFAULT
  stepsize       :    0.08000000                  energy_gap     :    0.08000000
  eps_taylor     :   0.10000E-15                  max_taylor     :             4
  ----------------------------------- OT ---------------------------------------

  Step     Update method      Time    Convergence         Total energy    Change
  ------------------------------------------------------------------------------
     1 OT DIIS     0.80E-01    4.2     0.00305866      -882.4783078415 -8.82E+02
     2 OT DIIS     0.80E-01    4.0     0.00209648      -882.7924215394 -3.14E-01
     3 OT DIIS     0.80E-01    4.0     0.00136952      -883.0421391540 -2.50E-01
     4 OT DIIS     0.80E-01    3.9     0.00137248      -883.1871648437 -1.45E-01
     5 OT DIIS     0.80E-01    3.9     0.00071175      -883.2181750054 -3.10E-02
     6 OT DIIS     0.80E-01    3.9     0.00042164      -883.2343966392 -1.62E-02
     7 OT DIIS     0.80E-01    3.9     0.00029114      -883.2409169392 -6.52E-03
     8 OT DIIS     0.80E-01    3.9     0.00017827      -883.2441345923 -3.22E-03
     9 OT DIIS     0.80E-01    3.9     0.00013055      -883.2459314542 -1.80E-03
    10 OT DIIS     0.80E-01    3.9     0.00012342      -883.2466518725 -7.20E-04
    11 OT DIIS     0.80E-01    3.9     0.00009606      -883.2472231820 -5.71E-04
    12 OT DIIS     0.80E-01    4.0     0.00007271      -883.2477081288 -4.85E-04
    13 OT DIIS     0.80E-01    3.9     0.00007185      -883.2480822443 -3.74E-04
    14 OT DIIS     0.80E-01    3.9     0.00006526      -883.2482733818 -1.91E-04
    15 OT DIIS     0.80E-01    4.0     0.00005653      -883.2485414142 -2.68E-04
    16 OT DIIS     0.80E-01    3.9     0.00005204      -883.2488207664 -2.79E-04
    17 OT DIIS     0.80E-01    3.9     0.00004769      -883.2490670636 -2.46E-04

  *** SCF run converged in    17 steps ***


  Electronic density on regular grids:       -418.9999999919        0.0000000081
  Core density on regular grids:              421.9999999732       -0.0000000268
  Total charge density on r-space grids:        2.9999999814
  Total charge density g-space grids:           2.9999999814

  Overlap energy of the core charge distribution:               0.00001613587413
  Self energy of the core charge distribution:              -2048.46367124836706
  Core Hamiltonian energy:                                    605.12007734799340
  Hartree energy:                                             765.86076754643398
  Exchange-correlation energy:                               -205.76625684556933

  Total energy:                                              -883.24906706363504

  Integrated absolute spin density  :                               7.2456631595
  Ideal and single determinant S**2 :                    8.750000       9.782526

 ENERGY| Total FORCE_EVAL ( QS ) energy (a.u.):             -883.249357443317194


 --------  Informations at step =     2 ------------
  Optimization Method        =                 BFGS
  Total Energy               =      -883.2493574433
  Real energy change         =        -0.1570512768
  Predicted change in energy =        -0.1946682800
  Scaling factor             =         0.8661800676
  Step size                  =         0.2678051766
  Trust radius               =         0.5669178399
  Decrease in energy         =                  YES
  Used time                  =               73.543

  Convergence check :
  Max. step size             =         0.2678051766
  Conv. limit for step size  =         0.1000000000
  Convergence in step size   =                   NO
  RMS step size              =         0.0819353309
  Conv. limit for RMS step   =         0.0100000000
  Convergence in RMS step    =                   NO
  Max. gradient              =         0.0691818619
  Conv. limit for gradients  =         0.1000000000
  Conv. in gradients         =                  YES
  RMS gradient               =         0.0112098000
  Conv. limit for RMS grad.  =         0.0100000000
  Conv. for gradients        =                   NO
 ---------------------------------------------------

 --------------------------
 OPTIMIZATION STEP:      3
 --------------------------

 Spin 1

 Number of electrons:                                                        212
 Number of occupied orbitals:                                                212
 Number of molecular orbitals:                                               212

 Spin 2

 Number of electrons:                                                        207
 Number of occupied orbitals:                                                207
 Number of molecular orbitals:                                               207

 Number of orbital functions:                                               1234
 Number of independent orbital functions:                                   1234

 Extrapolation method: ASPC


 SCF WAVEFUNCTION OPTIMIZATION

  ----------------------------------- OT ---------------------------------------
  Minimizer      : DIIS                : direct inversion
                                         in the iterative subspace
                                         using   7 DIIS vectors
                                         safer DIIS on
  Preconditioner : FULL_SINGLE_INVERSE : inversion of 
                                         H + eS - 2*(Sc)(c^T*H*c+const)(Sc)^T
  Precond_solver : DEFAULT
  stepsize       :    0.08000000                  energy_gap     :    0.08000000
  eps_taylor     :   0.10000E-15                  max_taylor     :             4
  ----------------------------------- OT ---------------------------------------

  Step     Update method      Time    Convergence         Total energy    Change
  ------------------------------------------------------------------------------
     1 OT DIIS     0.80E-01    3.0     0.00298442      -882.4119696870 -8.82E+02
     2 OT DIIS     0.80E-01    3.9     0.00226708      -882.7329371834 -3.21E-01
     3 OT DIIS     0.80E-01    3.9     0.00118756      -883.1485725759 -4.16E-01
     4 OT DIIS     0.80E-01    3.9     0.00125609      -883.2241908303 -7.56E-02
     5 OT DIIS     0.80E-01    4.0     0.00067468      -883.2602596700 -3.61E-02
     6 OT DIIS     0.80E-01    3.9     0.00039463      -883.2763464434 -1.61E-02
     7 OT DIIS     0.80E-01    3.9     0.00039648      -883.2819230766 -5.58E-03
     8 OT DIIS     0.80E-01    3.9     0.00021625      -883.2851790580 -3.26E-03
     9 OT DIIS     0.80E-01    3.9     0.00017386      -883.2868760698 -1.70E-03
    10 OT DIIS     0.80E-01    3.9     0.00012487      -883.2878743835 -9.98E-04
    11 OT DIIS     0.80E-01    4.0     0.00008964      -883.2885132265 -6.39E-04
    12 OT DIIS     0.80E-01    3.9     0.00007841      -883.2889853419 -4.72E-04
    13 OT DIIS     0.80E-01    3.9     0.00007518      -883.2892003287 -2.15E-04
    14 OT DIIS     0.80E-01    3.9     0.00006280      -883.2894082183 -2.08E-04
    15 OT DIIS     0.80E-01    3.9     0.00005741      -883.2895846005 -1.76E-04
    16 OT DIIS     0.80E-01    3.9     0.00005382      -883.2897264171 -1.42E-04
    17 OT DIIS     0.80E-01   11.4     0.00004736      -883.2899003171 -1.74E-04

  *** SCF run converged in    17 steps ***


  Electronic density on regular grids:       -418.9999999908        0.0000000092
  Core density on regular grids:              421.9999999732       -0.0000000268
  Total charge density on r-space grids:        2.9999999824
  Total charge density g-space grids:           2.9999999824

  Overlap energy of the core charge distribution:               0.00001595285181
  Self energy of the core charge distribution:              -2048.46367124836706
  Core Hamiltonian energy:                                    605.34752848916492
  Hartree energy:                                             765.62284445632531
  Exchange-correlation energy:                               -205.79661796708939

  Total energy:                                              -883.28990031711442

  Integrated absolute spin density  :                               7.2388452451
  Ideal and single determinant S**2 :                    8.750000       9.806508

 ENERGY| Total FORCE_EVAL ( QS ) energy (a.u.):             -883.290030322801385


 --------  Informations at step =     3 ------------
  Optimization Method        =                 BFGS
  Total Energy               =      -883.2900303228
  Real energy change         =        -0.0406728795
  Predicted change in energy =        -0.0585898080
  Scaling factor             =         0.8661800676
  Step size                  =         0.1805218399
  Trust radius               =         0.5669178399
  Decrease in energy         =                  YES
  Used time                  =               83.041

  Convergence check :
  Max. step size             =         0.1805218399
  Conv. limit for step size  =         0.1000000000
  Convergence in step size   =                   NO
  RMS step size              =         0.0470299347
  Conv. limit for RMS step   =         0.0100000000
  Convergence in RMS step    =                   NO
  Max. gradient              =         0.0512745883
  Conv. limit for gradients  =         0.1000000000
  Conv. in gradients         =                  YES
  RMS gradient               =         0.0079442782
  Conv. limit for RMS grad.  =         0.0100000000
  Conv. in RMS gradients     =                  YES
 ---------------------------------------------------

 --------------------------
 OPTIMIZATION STEP:      4
 --------------------------

 Spin 1

 Number of electrons:                                                        212
 Number of occupied orbitals:                                                212
 Number of molecular orbitals:                                               212

 Spin 2

 Number of electrons:                                                        207
 Number of occupied orbitals:                                                207
 Number of molecular orbitals:                                               207

 Number of orbital functions:                                               1234
 Number of independent orbital functions:                                   1234

 Extrapolation method: ASPC


 SCF WAVEFUNCTION OPTIMIZATION

  ----------------------------------- OT ---------------------------------------
  Minimizer      : DIIS                : direct inversion
                                         in the iterative subspace
                                         using   7 DIIS vectors
                                         safer DIIS on
  Preconditioner : FULL_SINGLE_INVERSE : inversion of 
                                         H + eS - 2*(Sc)(c^T*H*c+const)(Sc)^T
  Precond_solver : DEFAULT
  stepsize       :    0.08000000                  energy_gap     :    0.08000000
  eps_taylor     :   0.10000E-15                  max_taylor     :             4
  ----------------------------------- OT ---------------------------------------

  Step     Update method      Time    Convergence         Total energy    Change
  ------------------------------------------------------------------------------
     1 OT DIIS     0.80E-01    3.1     0.00269556      -882.6312032876 -8.83E+02
     2 OT DIIS     0.80E-01    4.0     0.00202369      -882.8902798790 -2.59E-01
     3 OT DIIS     0.80E-01    3.9     0.00143337      -883.1834197010 -2.93E-01
     4 OT DIIS     0.80E-01    3.9     0.00140973      -883.2440081873 -6.06E-02
     5 OT DIIS     0.80E-01    4.0     0.00055846      -883.2919952633 -4.80E-02
     6 OT DIIS     0.80E-01    3.9     0.00040716      -883.3043536790 -1.24E-02
     7 OT DIIS     0.80E-01    3.9     0.00027363      -883.3100412446 -5.69E-03
     8 OT DIIS     0.80E-01    4.0     0.00020055      -883.3128874887 -2.85E-03
     9 OT DIIS     0.80E-01    4.4     0.00015587      -883.3138274914 -9.40E-04
    10 OT DIIS     0.80E-01    4.0     0.00009230      -883.3146782814 -8.51E-04
    11 OT DIIS     0.80E-01    3.9     0.00007023      -883.3151638691 -4.86E-04
    12 OT DIIS     0.80E-01    3.9     0.00006043      -883.3154511357 -2.87E-04
    13 OT DIIS     0.80E-01    3.9     0.00005495      -883.3156169577 -1.66E-04
    14 OT DIIS     0.80E-01    4.0     0.00005306      -883.3157619763 -1.45E-04
    15 OT DIIS     0.80E-01    3.9     0.00004469      -883.3158841878 -1.22E-04

  *** SCF run converged in    15 steps ***


  Electronic density on regular grids:       -418.9999999915        0.0000000085
  Core density on regular grids:              421.9999999732       -0.0000000268
  Total charge density on r-space grids:        2.9999999817
  Total charge density g-space grids:           2.9999999817

  Overlap energy of the core charge distribution:               0.00001589902890
  Self energy of the core charge distribution:              -2048.46367124836706
  Core Hamiltonian energy:                                    604.99910185148360
  Hartree energy:                                             765.85431056414575
  Exchange-correlation energy:                               -205.70564125405716

  Total energy:                                              -883.31588418776619

  Integrated absolute spin density  :                               7.2300431183
  Ideal and single determinant S**2 :                    8.750000       9.823751

 ENERGY| Total FORCE_EVAL ( QS ) energy (a.u.):             -883.316047059735070


 --------  Informations at step =     4 ------------
  Optimization Method        =                 BFGS
  Total Energy               =      -883.3160470597
  Real energy change         =        -0.0260167369
  Predicted change in energy =        -0.0355948948
  Scaling factor             =         0.8661800676
  Step size                  =         0.1693834258
  Trust radius               =         0.5669178399
  Decrease in energy         =                  YES
  Used time                  =               67.793

  Convergence check :
  Max. step size             =         0.1693834258
  Conv. limit for step size  =         0.1000000000
  Convergence in step size   =                   NO
  RMS step size              =         0.0378210630
  Conv. limit for RMS step   =         0.0100000000
  Convergence in RMS step    =                   NO
  Max. gradient              =         0.0313542564
  Conv. limit for gradients  =         0.1000000000
  Conv. in gradients         =                  YES
  RMS gradient               =         0.0053373211
  Conv. limit for RMS grad.  =         0.0100000000
  Conv. in RMS gradients     =                  YES
 ---------------------------------------------------

 --------------------------
 OPTIMIZATION STEP:      5
 --------------------------

 Spin 1

 Number of electrons:                                                        212
 Number of occupied orbitals:                                                212
 Number of molecular orbitals:                                               212

 Spin 2

 Number of electrons:                                                        207
 Number of occupied orbitals:                                                207
 Number of molecular orbitals:                                               207

 Number of orbital functions:                                               1234
 Number of independent orbital functions:                                   1234

 Extrapolation method: ASPC


 SCF WAVEFUNCTION OPTIMIZATION

  ----------------------------------- OT ---------------------------------------
  Minimizer      : DIIS                : direct inversion
                                         in the iterative subspace
                                         using   7 DIIS vectors
                                         safer DIIS on
  Preconditioner : FULL_SINGLE_INVERSE : inversion of 
                                         H + eS - 2*(Sc)(c^T*H*c+const)(Sc)^T
  Precond_solver : DEFAULT
  stepsize       :    0.08000000                  energy_gap     :    0.08000000
  eps_taylor     :   0.10000E-15                  max_taylor     :             4
  ----------------------------------- OT ---------------------------------------

  Step     Update method      Time    Convergence         Total energy    Change
  ------------------------------------------------------------------------------
     1 OT DIIS     0.80E-01    3.0     0.00212778      -882.8904406675 -8.83E+02
     2 OT DIIS     0.80E-01    3.9     0.00160480      -883.0520095183 -1.62E-01
     3 OT DIIS     0.80E-01    4.0     0.00105304      -883.2373841664 -1.85E-01
     4 OT DIIS     0.80E-01    4.0     0.00112925      -883.2841218780 -4.67E-02
     5 OT DIIS     0.80E-01    3.9     0.00044400      -883.3138064549 -2.97E-02
     6 OT DIIS     0.80E-01    3.9     0.00037120      -883.3219767985 -8.17E-03
     7 OT DIIS     0.80E-01    4.0     0.00026724      -883.3252215087 -3.24E-03
     8 OT DIIS     0.80E-01    3.9     0.00015542      -883.3276058664 -2.38E-03
     9 OT DIIS     0.80E-01    3.9     0.00012434      -883.3282573671 -6.52E-04
    10 OT DIIS     0.80E-01    3.9     0.00007819      -883.3287929199 -5.36E-04
    11 OT DIIS     0.80E-01    3.9     0.00005887      -883.3291314331 -3.39E-04
    12 OT DIIS     0.80E-01    3.9     0.00004603      -883.3293803632 -2.49E-04

  *** SCF run converged in    12 steps ***


  Electronic density on regular grids:       -418.9999999908        0.0000000092
  Core density on regular grids:              421.9999999732       -0.0000000268
  Total charge density on r-space grids:        2.9999999824
  Total charge density g-space grids:           2.9999999824

  Overlap energy of the core charge distribution:               0.00001578425877
  Self energy of the core charge distribution:              -2048.46367124836706
  Core Hamiltonian energy:                                    605.10714713921061
  Hartree energy:                                             765.75130392081769
  Exchange-correlation energy:                               -205.72417595916178

  Total energy:                                              -883.32938036324185

  Integrated absolute spin density  :                               7.2664977456
  Ideal and single determinant S**2 :                    8.750000       9.782517

 ENERGY| Total FORCE_EVAL ( QS ) energy (a.u.):             -883.329500628029678


 --------  Informations at step =     5 ------------
  Optimization Method        =                 BFGS
  Total Energy               =      -883.3295006280
  Real energy change         =        -0.0134535683
  Predicted change in energy =        -0.0147726920
  Scaling factor             =         0.8661800676
  Step size                  =         0.0894718677
  Trust radius               =         0.5669178399
  Decrease in energy         =                  YES
  Used time                  =               52.318

  Convergence check :
  Max. step size             =         0.0894718677
  Conv. limit for step size  =         0.1000000000
  Convergence in step size   =                  YES
  RMS step size              =         0.0252822706
  Conv. limit for RMS step   =         0.0100000000
  Convergence in RMS step    =                   NO
  Max. gradient              =         0.0171244219
  Conv. limit for gradients  =         0.1000000000
  Conv. in gradients         =                  YES
  RMS gradient               =         0.0039069583
  Conv. limit for RMS grad.  =         0.0100000000
  Conv. in RMS gradients     =                  YES
 ---------------------------------------------------

 --------------------------
 OPTIMIZATION STEP:      6
 --------------------------

 Spin 1

 Number of electrons:                                                        212
 Number of occupied orbitals:                                                212
 Number of molecular orbitals:                                               212

 Spin 2

 Number of electrons:                                                        207
 Number of occupied orbitals:                                                207
 Number of molecular orbitals:                                               207

 Number of orbital functions:                                               1234
 Number of independent orbital functions:                                   1234

 Extrapolation method: ASPC


 SCF WAVEFUNCTION OPTIMIZATION

  ----------------------------------- OT ---------------------------------------
  Minimizer      : DIIS                : direct inversion
                                         in the iterative subspace
                                         using   7 DIIS vectors
                                         safer DIIS on
  Preconditioner : FULL_SINGLE_INVERSE : inversion of 
                                         H + eS - 2*(Sc)(c^T*H*c+const)(Sc)^T
  Precond_solver : DEFAULT
  stepsize       :    0.08000000                  energy_gap     :    0.08000000
  eps_taylor     :   0.10000E-15                  max_taylor     :             4
  ----------------------------------- OT ---------------------------------------

  Step     Update method      Time    Convergence         Total energy    Change
  ------------------------------------------------------------------------------
     1 OT DIIS     0.80E-01    3.0     0.00132168      -883.1726143103 -8.83E+02
     2 OT DIIS     0.80E-01    3.9     0.00097276      -883.2335713744 -6.10E-02
     3 OT DIIS     0.80E-01    3.9     0.00082675      -883.2896046536 -5.60E-02
     4 OT DIIS     0.80E-01    3.9     0.00070650      -883.3085407135 -1.89E-02
     5 OT DIIS     0.80E-01    3.9     0.00029588      -883.3267211809 -1.82E-02
     6 OT DIIS     0.80E-01    3.9     0.00028936      -883.3298965241 -3.18E-03
     7 OT DIIS     0.80E-01    3.9     0.00016499      -883.3318158388 -1.92E-03
     8 OT DIIS     0.80E-01    3.9     0.00011635      -883.3328876906 -1.07E-03
     9 OT DIIS     0.80E-01    3.9     0.00008602      -883.3332861747 -3.98E-04
    10 OT DIIS     0.80E-01    4.0     0.00006566      -883.3336291753 -3.43E-04
    11 OT DIIS     0.80E-01    3.9     0.00006545      -883.3338416337 -2.12E-04
    12 OT DIIS     0.80E-01    3.9     0.00005174      -883.3340344649 -1.93E-04
    13 OT DIIS     0.80E-01    3.9     0.00005142      -883.3341752936 -1.41E-04
    14 OT DIIS     0.80E-01    4.0     0.00004542      -883.3342855313 -1.10E-04

  *** SCF run converged in    14 steps ***


  Electronic density on regular grids:       -418.9999999911        0.0000000089
  Core density on regular grids:              421.9999999731       -0.0000000269
  Total charge density on r-space grids:        2.9999999820
  Total charge density g-space grids:           2.9999999820

  Overlap energy of the core charge distribution:               0.00001589515381
  Self energy of the core charge distribution:              -2048.46367124836706
  Core Hamiltonian energy:                                    605.31890469108941
  Hartree energy:                                             765.56585038045910
  Exchange-correlation energy:                               -205.75538524964517

  Total energy:                                              -883.33428553130977

  Integrated absolute spin density  :                               7.2855586271
  Ideal and single determinant S**2 :                    8.750000       9.783304

 ENERGY| Total FORCE_EVAL ( QS ) energy (a.u.):             -883.334416364145227


 --------  Informations at step =     6 ------------
  Optimization Method        =                 BFGS
  Total Energy               =      -883.3344163641
  Real energy change         =        -0.0049157361
  Predicted change in energy =        -0.0089233333
  Scaling factor             =         0.8661800676
  Step size                  =         0.0968022856
  Trust radius               =         0.5669178399
  Decrease in energy         =                  YES
  Used time                  =               60.073

  Convergence check :
  Max. step size             =         0.0968022856
  Conv. limit for step size  =         0.1000000000
  Convergence in step size   =                  YES
  RMS step size              =         0.0233811212
  Conv. limit for RMS step   =         0.0100000000
  Convergence in RMS step    =                   NO
  Max. gradient              =         0.0217159528
  Conv. limit for gradients  =         0.1000000000
  Conv. in gradients         =                  YES
  RMS gradient               =         0.0036602750
  Conv. limit for RMS grad.  =         0.0100000000
  Conv. in RMS gradients     =                  YES
 ---------------------------------------------------

 --------------------------
 OPTIMIZATION STEP:      7
 --------------------------

 Spin 1

 Number of electrons:                                                        212
 Number of occupied orbitals:                                                212
 Number of molecular orbitals:                                               212

 Spin 2

 Number of electrons:                                                        207
 Number of occupied orbitals:                                                207
 Number of molecular orbitals:                                               207

 Number of orbital functions:                                               1234
 Number of independent orbital functions:                                   1234

 Extrapolation method: ASPC


 SCF WAVEFUNCTION OPTIMIZATION

  ----------------------------------- OT ---------------------------------------
  Minimizer      : DIIS                : direct inversion
                                         in the iterative subspace
                                         using   7 DIIS vectors
                                         safer DIIS on
  Preconditioner : FULL_SINGLE_INVERSE : inversion of 
                                         H + eS - 2*(Sc)(c^T*H*c+const)(Sc)^T
  Precond_solver : DEFAULT
  stepsize       :    0.08000000                  energy_gap     :    0.08000000
  eps_taylor     :   0.10000E-15                  max_taylor     :             4
  ----------------------------------- OT ---------------------------------------

  Step     Update method      Time    Convergence         Total energy    Change
  ------------------------------------------------------------------------------
     1 OT DIIS     0.80E-01    3.0     0.00103112      -883.2417110373 -8.83E+02
     2 OT DIIS     0.80E-01    3.9     0.00078516      -883.2782810049 -3.66E-02
     3 OT DIIS     0.80E-01    3.9     0.00102163      -883.3002280077 -2.19E-02
     4 OT DIIS     0.80E-01    3.9     0.00039663      -883.3216945047 -2.15E-02
     5 OT DIIS     0.80E-01    3.9     0.00029030      -883.3325863652 -1.09E-02
     6 OT DIIS     0.80E-01    3.9     0.00022474      -883.3346405636 -2.05E-03
     7 OT DIIS     0.80E-01    3.9     0.00011011      -883.3360145080 -1.37E-03
     8 OT DIIS     0.80E-01    3.9     0.00008169      -883.3366567403 -6.42E-04
     9 OT DIIS     0.80E-01    3.9     0.00007246      -883.3368586434 -2.02E-04
    10 OT DIIS     0.80E-01    3.9     0.00004915      -883.3370446550 -1.86E-04

  *** SCF run converged in    10 steps ***


  Electronic density on regular grids:       -418.9999999906        0.0000000094
  Core density on regular grids:              421.9999999731       -0.0000000269
  Total charge density on r-space grids:        2.9999999826
  Total charge density g-space grids:           2.9999999826

  Overlap energy of the core charge distribution:               0.00001623761379
  Self energy of the core charge distribution:              -2048.46367124836706
  Core Hamiltonian energy:                                    605.46997141075724
  Hartree energy:                                             765.43407824659278
  Exchange-correlation energy:                               -205.77743930162484

  Total energy:                                              -883.33704465502808

  Integrated absolute spin density  :                               7.1894298864
  Ideal and single determinant S**2 :                    8.750000       9.756548

 ENERGY| Total FORCE_EVAL ( QS ) energy (a.u.):             -883.337180442845238


 --------  Informations at step =     7 ------------
  Optimization Method        =                 BFGS
  Total Energy               =      -883.3371804428
  Real energy change         =        -0.0027640787
  Predicted change in energy =        -0.0061906404
  Scaling factor             =         0.8661800676
  Step size                  =         0.0925516513
  Trust radius               =         0.5669178399
  Decrease in energy         =                  YES
  Used time                  =               44.050

  Convergence check :
  Max. step size             =         0.0925516513
  Conv. limit for step size  =         0.1000000000
  Convergence in step size   =                  YES
  RMS step size              =         0.0206944226
  Conv. limit for RMS step   =         0.0100000000
  Convergence in RMS step    =                   NO
  Max. gradient              =         0.0172905399
  Conv. limit for gradients  =         0.1000000000
  Conv. in gradients         =                  YES
  RMS gradient               =         0.0035169094
  Conv. limit for RMS grad.  =         0.0100000000
  Conv. in RMS gradients     =                  YES
 ---------------------------------------------------

 --------------------------
 OPTIMIZATION STEP:      8
 --------------------------

 Spin 1

 Number of electrons:                                                        212
 Number of occupied orbitals:                                                212
 Number of molecular orbitals:                                               212

 Spin 2

 Number of electrons:                                                        207
 Number of occupied orbitals:                                                207
 Number of molecular orbitals:                                               207

 Number of orbital functions:                                               1234
 Number of independent orbital functions:                                   1234

 Extrapolation method: ASPC


 SCF WAVEFUNCTION OPTIMIZATION

  ----------------------------------- OT ---------------------------------------
  Minimizer      : DIIS                : direct inversion
                                         in the iterative subspace
                                         using   7 DIIS vectors
                                         safer DIIS on
  Preconditioner : FULL_SINGLE_INVERSE : inversion of 
                                         H + eS - 2*(Sc)(c^T*H*c+const)(Sc)^T
  Precond_solver : DEFAULT
  stepsize       :    0.08000000                  energy_gap     :    0.08000000
  eps_taylor     :   0.10000E-15                  max_taylor     :             4
  ----------------------------------- OT ---------------------------------------

  Step     Update method      Time    Convergence         Total energy    Change
  ------------------------------------------------------------------------------
     1 OT DIIS     0.80E-01   16.1     0.00096171      -883.2612449090 -8.83E+02
     2 OT DIIS     0.80E-01    4.5     0.00072448      -883.2925250597 -3.13E-02
     3 OT DIIS     0.80E-01    3.9     0.00100992      -883.3090114069 -1.65E-02
     4 OT DIIS     0.80E-01    3.9     0.00041669      -883.3259934183 -1.70E-02
     5 OT DIIS     0.80E-01    3.9     0.00036887      -883.3356062517 -9.61E-03
     6 OT DIIS     0.80E-01    3.9     0.00020036      -883.3385071923 -2.90E-03
     7 OT DIIS     0.80E-01    3.9     0.00012266      -883.3397021092 -1.19E-03
     8 OT DIIS     0.80E-01    3.9     0.00008662      -883.3403889125 -6.87E-04
     9 OT DIIS     0.80E-01    3.9     0.00007311      -883.3406760314 -2.87E-04
    10 OT DIIS     0.80E-01    3.9     0.00005406      -883.3409052315 -2.29E-04
    11 OT DIIS     0.80E-01    3.9     0.00005180      -883.3410431970 -1.38E-04
    12 OT DIIS     0.80E-01    3.9     0.00004657      -883.3411513185 -1.08E-04

  *** SCF run converged in    12 steps ***


  Electronic density on regular grids:       -418.9999999906        0.0000000094
  Core density on regular grids:              421.9999999732       -0.0000000268
  Total charge density on r-space grids:        2.9999999826
  Total charge density g-space grids:           2.9999999826

  Overlap energy of the core charge distribution:               0.00001630223260
  Self energy of the core charge distribution:              -2048.46367124836706
  Core Hamiltonian energy:                                    605.43665914536859
  Hartree energy:                                             765.44511643748115
  Exchange-correlation energy:                               -205.75927195523923

  Total energy:                                              -883.34115131852377

  Integrated absolute spin density  :                               7.0477111179
  Ideal and single determinant S**2 :                    8.750000       9.720553

 ENERGY| Total FORCE_EVAL ( QS ) energy (a.u.):             -883.341245412515264


 --------  Informations at step =     8 ------------
  Optimization Method        =                 BFGS
  Total Energy               =      -883.3412454125
  Real energy change         =        -0.0040649697
  Predicted change in energy =        -0.0063542637
  Scaling factor             =         0.8661800676
  Step size                  =         0.0896558571
  Trust radius               =         0.5669178399
  Decrease in energy         =                  YES
  Used time                  =               65.877

  Convergence check :
  Max. step size             =         0.0896558571
  Conv. limit for step size  =         0.1000000000
  Convergence in step size   =                  YES
  RMS step size              =         0.0215654699
  Conv. limit for RMS step   =         0.0100000000
  Convergence in RMS step    =                   NO
  Max. gradient              =         0.0126869996
  Conv. limit for gradients  =         0.1000000000
  Conv. in gradients         =                  YES
  RMS gradient               =         0.0026871152
  Conv. limit for RMS grad.  =         0.0100000000
  Conv. in RMS gradients     =                  YES
 ---------------------------------------------------

 --------------------------
 OPTIMIZATION STEP:      9
 --------------------------

 Spin 1

 Number of electrons:                                                        212
 Number of occupied orbitals:                                                212
 Number of molecular orbitals:                                               212

 Spin 2

 Number of electrons:                                                        207
 Number of occupied orbitals:                                                207
 Number of molecular orbitals:                                               207

 Number of orbital functions:                                               1234
 Number of independent orbital functions:                                   1234

 Extrapolation method: ASPC


 SCF WAVEFUNCTION OPTIMIZATION

  ----------------------------------- OT ---------------------------------------
  Minimizer      : DIIS                : direct inversion
                                         in the iterative subspace
                                         using   7 DIIS vectors
                                         safer DIIS on
  Preconditioner : FULL_SINGLE_INVERSE : inversion of 
                                         H + eS - 2*(Sc)(c^T*H*c+const)(Sc)^T
  Precond_solver : DEFAULT
  stepsize       :    0.08000000                  energy_gap     :    0.08000000
  eps_taylor     :   0.10000E-15                  max_taylor     :             4
  ----------------------------------- OT ---------------------------------------

  Step     Update method      Time    Convergence         Total energy    Change
  ------------------------------------------------------------------------------
     1 OT DIIS     0.80E-01    3.0     0.00087316      -883.2785773873 -8.83E+02
     2 OT DIIS     0.80E-01    3.9     0.00062862      -883.3045243664 -2.59E-02
     3 OT DIIS     0.80E-01    3.9     0.00057805      -883.3240310008 -1.95E-02
     4 OT DIIS     0.80E-01    3.9     0.00045652      -883.3329560004 -8.92E-03
     5 OT DIIS     0.80E-01    3.9     0.00021844      -883.3409204760 -7.96E-03
     6 OT DIIS     0.80E-01    3.9     0.00015378      -883.3427020477 -1.78E-03
     7 OT DIIS     0.80E-01    3.9     0.00013179      -883.3433400945 -6.38E-04
     8 OT DIIS     0.80E-01    3.9     0.00006773      -883.3438004720 -4.60E-04
     9 OT DIIS     0.80E-01    3.9     0.00005661      -883.3440494483 -2.49E-04
    10 OT DIIS     0.80E-01    3.9     0.00004782      -883.3441728855 -1.23E-04

  *** SCF run converged in    10 steps ***


  Electronic density on regular grids:       -418.9999999904        0.0000000096
  Core density on regular grids:              421.9999999732       -0.0000000268
  Total charge density on r-space grids:        2.9999999827
  Total charge density g-space grids:           2.9999999827

  Overlap energy of the core charge distribution:               0.00001599498341
  Self energy of the core charge distribution:              -2048.46367124836706
  Core Hamiltonian energy:                                    605.36042715106646
  Hartree energy:                                             765.48959117396896
  Exchange-correlation energy:                               -205.73053595716209

  Total energy:                                              -883.34417288551049

  Integrated absolute spin density  :                               6.9520812128
  Ideal and single determinant S**2 :                    8.750000       9.697500

 ENERGY| Total FORCE_EVAL ( QS ) energy (a.u.):             -883.344290411269640


 --------  Informations at step =     9 ------------
  Optimization Method        =                 BFGS
  Total Energy               =      -883.3442904113
  Real energy change         =        -0.0030449988
  Predicted change in energy =        -0.0039978529
  Scaling factor             =         0.8661800676
  Step size                  =         0.1078063630
  Trust radius               =         0.5669178399
  Decrease in energy         =                  YES
  Used time                  =               44.100

  Convergence check :
  Max. step size             =         0.1078063630
  Conv. limit for step size  =         0.1000000000
  Convergence in step size   =                   NO
  RMS step size              =         0.0197733413
  Conv. limit for RMS step   =         0.0100000000
  Convergence in RMS step    =                   NO
  Max. gradient              =         0.0092571286
  Conv. limit for gradients  =         0.1000000000
  Conv. in gradients         =                  YES
  RMS gradient               =         0.0021846550
  Conv. limit for RMS grad.  =         0.0100000000
  Conv. in RMS gradients     =                  YES
 ---------------------------------------------------

 --------------------------
 OPTIMIZATION STEP:     10
 --------------------------

 Spin 1

 Number of electrons:                                                        212
 Number of occupied orbitals:                                                212
 Number of molecular orbitals:                                               212

 Spin 2

 Number of electrons:                                                        207
 Number of occupied orbitals:                                                207
 Number of molecular orbitals:                                               207

 Number of orbital functions:                                               1234
 Number of independent orbital functions:                                   1234

 Extrapolation method: ASPC


 SCF WAVEFUNCTION OPTIMIZATION

  ----------------------------------- OT ---------------------------------------
  Minimizer      : DIIS                : direct inversion
                                         in the iterative subspace
                                         using   7 DIIS vectors
                                         safer DIIS on
  Preconditioner : FULL_SINGLE_INVERSE : inversion of 
                                         H + eS - 2*(Sc)(c^T*H*c+const)(Sc)^T
  Precond_solver : DEFAULT
  stepsize       :    0.08000000                  energy_gap     :    0.08000000
  eps_taylor     :   0.10000E-15                  max_taylor     :             4
  ----------------------------------- OT ---------------------------------------

  Step     Update method      Time    Convergence         Total energy    Change
  ------------------------------------------------------------------------------
     1 OT DIIS     0.80E-01    3.0     0.00058289      -883.3153893168 -8.83E+02
     2 OT DIIS     0.80E-01    3.9     0.00045372      -883.3269539418 -1.16E-02
     3 OT DIIS     0.80E-01    3.9     0.00056799      -883.3332036457 -6.25E-03
     4 OT DIIS     0.80E-01    3.9     0.00026845      -883.3404591048 -7.26E-03
     5 OT DIIS     0.80E-01    3.9     0.00016764      -883.3442496423 -3.79E-03
     6 OT DIIS     0.80E-01    3.9     0.00011605      -883.3452125450 -9.63E-04
     7 OT DIIS     0.80E-01    3.9     0.00008431      -883.3455711921 -3.59E-04
     8 OT DIIS     0.80E-01    3.9     0.00005742      -883.3458434570 -2.72E-04
     9 OT DIIS     0.80E-01    3.9     0.00005548      -883.3459779540 -1.34E-04
    10 OT DIIS     0.80E-01    3.9     0.00004083      -883.3460969288 -1.19E-04

  *** SCF run converged in    10 steps ***


  Electronic density on regular grids:       -418.9999999913        0.0000000087
  Core density on regular grids:              421.9999999732       -0.0000000268
  Total charge density on r-space grids:        2.9999999819
  Total charge density g-space grids:           2.9999999819

  Overlap energy of the core charge distribution:               0.00001589199628
  Self energy of the core charge distribution:              -2048.46367124836706
  Core Hamiltonian energy:                                    605.38522105381753
  Hartree energy:                                             765.44947839665167
  Exchange-correlation energy:                               -205.71714102288735

  Total energy:                                              -883.34609692878917

  Integrated absolute spin density  :                               7.0321032877
  Ideal and single determinant S**2 :                    8.750000       9.700152

 ENERGY| Total FORCE_EVAL ( QS ) energy (a.u.):             -883.346203447581388


 --------  Informations at step =    10 ------------
  Optimization Method        =                 BFGS
  Total Energy               =      -883.3462034476
  Real energy change         =        -0.0019130363
  Predicted change in energy =        -0.0041194716
  Scaling factor             =         0.8661800676
  Step size                  =         0.1230245647
  Trust radius               =         0.5669178399
  Decrease in energy         =                  YES
  Used time                  =               44.062

  Convergence check :
  Max. step size             =         0.1230245647
  Conv. limit for step size  =         0.1000000000
  Convergence in step size   =                   NO
  RMS step size              =         0.0290686058
  Conv. limit for RMS step   =         0.0100000000
  Convergence in RMS step    =                   NO
  Max. gradient              =         0.0241344990
  Conv. limit for gradients  =         0.1000000000
  Conv. in gradients         =                  YES
  RMS gradient               =         0.0025278529
  Conv. limit for RMS grad.  =         0.0100000000
  Conv. in RMS gradients     =                  YES
 ---------------------------------------------------

 --------------------------
 OPTIMIZATION STEP:     11
 --------------------------

 Spin 1

 Number of electrons:                                                        212
 Number of occupied orbitals:                                                212
 Number of molecular orbitals:                                               212

 Spin 2

 Number of electrons:                                                        207
 Number of occupied orbitals:                                                207
 Number of molecular orbitals:                                               207

 Number of orbital functions:                                               1234
 Number of independent orbital functions:                                   1234

 Extrapolation method: ASPC


 SCF WAVEFUNCTION OPTIMIZATION

  ----------------------------------- OT ---------------------------------------
  Minimizer      : DIIS                : direct inversion
                                         in the iterative subspace
                                         using   7 DIIS vectors
                                         safer DIIS on
  Preconditioner : FULL_SINGLE_INVERSE : inversion of 
                                         H + eS - 2*(Sc)(c^T*H*c+const)(Sc)^T
  Precond_solver : DEFAULT
  stepsize       :    0.08000000                  energy_gap     :    0.08000000
  eps_taylor     :   0.10000E-15                  max_taylor     :             4
  ----------------------------------- OT ---------------------------------------

  Step     Update method      Time    Convergence         Total energy    Change
  ------------------------------------------------------------------------------
     1 OT DIIS     0.80E-01    3.0     0.00053472      -883.3237246746 -8.83E+02
     2 OT DIIS     0.80E-01    3.9     0.00039754      -883.3328917008 -9.17E-03
     3 OT DIIS     0.80E-01    3.9     0.00044223      -883.3373521634 -4.46E-03
     4 OT DIIS     0.80E-01    3.9     0.00027887      -883.3415716878 -4.22E-03
     5 OT DIIS     0.80E-01    3.9     0.00018212      -883.3458431601 -4.27E-03
     6 OT DIIS     0.80E-01    3.9     0.00010802      -883.3467104600 -8.67E-04
     7 OT DIIS     0.80E-01    3.9     0.00008089      -883.3471268836 -4.16E-04
     8 OT DIIS     0.80E-01    3.9     0.00006014      -883.3473815088 -2.55E-04
     9 OT DIIS     0.80E-01    3.9     0.00005275      -883.3475117308 -1.30E-04
    10 OT DIIS     0.80E-01    3.9     0.00003806      -883.3476418266 -1.30E-04

  *** SCF run converged in    10 steps ***


  Electronic density on regular grids:       -418.9999999911        0.0000000089
  Core density on regular grids:              421.9999999732       -0.0000000268
  Total charge density on r-space grids:        2.9999999821
  Total charge density g-space grids:           2.9999999821

  Overlap energy of the core charge distribution:               0.00001608448407
  Self energy of the core charge distribution:              -2048.46367124836706
  Core Hamiltonian energy:                                    605.37231240102449
  Hartree energy:                                             765.44182533259618
  Exchange-correlation energy:                               -205.69812439629686

  Total energy:                                              -883.34764182655897

  Integrated absolute spin density  :                               7.1403172753
  Ideal and single determinant S**2 :                    8.750000       9.747172

 ENERGY| Total FORCE_EVAL ( QS ) energy (a.u.):             -883.347748984303507


 --------  Informations at step =    11 ------------
  Optimization Method        =                 BFGS
  Total Energy               =      -883.3477489843
  Real energy change         =        -0.0015455367
  Predicted change in energy =        -0.0040585607
  Scaling factor             =         0.8661800676
  Step size                  =         0.1338661593
  Trust radius               =         0.5669178399
  Decrease in energy         =                  YES
  Used time                  =               44.048

  Convergence check :
  Max. step size             =         0.1338661593
  Conv. limit for step size  =         0.1000000000
  Convergence in step size   =                   NO
  RMS step size              =         0.0292962881
  Conv. limit for RMS step   =         0.0100000000
  Convergence in RMS step    =                   NO
  Max. gradient              =         0.0181085947
  Conv. limit for gradients  =         0.1000000000
  Conv. in gradients         =                  YES
  RMS gradient               =         0.0031954808
  Conv. limit for RMS grad.  =         0.0100000000
  Conv. in RMS gradients     =                  YES
 ---------------------------------------------------

 --------------------------
 OPTIMIZATION STEP:     12
 --------------------------

 Spin 1

 Number of electrons:                                                        212
 Number of occupied orbitals:                                                212
 Number of molecular orbitals:                                               212

 Spin 2

 Number of electrons:                                                        207
 Number of occupied orbitals:                                                207
 Number of molecular orbitals:                                               207

 Number of orbital functions:                                               1234
 Number of independent orbital functions:                                   1234

 Extrapolation method: ASPC


 SCF WAVEFUNCTION OPTIMIZATION

  ----------------------------------- OT ---------------------------------------
  Minimizer      : DIIS                : direct inversion
                                         in the iterative subspace
                                         using   7 DIIS vectors
                                         safer DIIS on
  Preconditioner : FULL_SINGLE_INVERSE : inversion of 
                                         H + eS - 2*(Sc)(c^T*H*c+const)(Sc)^T
  Precond_solver : DEFAULT
  stepsize       :    0.08000000                  energy_gap     :    0.08000000
  eps_taylor     :   0.10000E-15                  max_taylor     :             4
  ----------------------------------- OT ---------------------------------------

  Step     Update method      Time    Convergence         Total energy    Change
  ------------------------------------------------------------------------------
     1 OT DIIS     0.80E-01    3.0     0.00055715      -883.3215797159 -8.83E+02
     2 OT DIIS     0.80E-01    3.9     0.00041504      -883.3320502993 -1.05E-02
     3 OT DIIS     0.80E-01    3.9     0.00050066      -883.3381673084 -6.12E-03
     4 OT DIIS     0.80E-01    3.9     0.00025197      -883.3433602728 -5.19E-03
     5 OT DIIS     0.80E-01    3.9     0.00017507      -883.3470613982 -3.70E-03
     6 OT DIIS     0.80E-01    3.9     0.00011864      -883.3480113932 -9.50E-04
     7 OT DIIS     0.80E-01    3.9     0.00008552      -883.3483817713 -3.70E-04
     8 OT DIIS     0.80E-01    3.9     0.00005759      -883.3486898581 -3.08E-04
     9 OT DIIS     0.80E-01    3.9     0.00005053      -883.3488255413 -1.36E-04
    10 OT DIIS     0.80E-01    3.9     0.00004005      -883.3489529432 -1.27E-04

  *** SCF run converged in    10 steps ***


  Electronic density on regular grids:       -418.9999999913        0.0000000087
  Core density on regular grids:              421.9999999732       -0.0000000268
  Total charge density on r-space grids:        2.9999999819
  Total charge density g-space grids:           2.9999999819

  Overlap energy of the core charge distribution:               0.00001601191593
  Self energy of the core charge distribution:              -2048.46367124836706
  Core Hamiltonian energy:                                    605.24122304078605
  Hartree energy:                                             765.52763824948443
  Exchange-correlation energy:                               -205.65415899701767

  Total energy:                                              -883.34895294319858

  Integrated absolute spin density  :                               7.1247308050
  Ideal and single determinant S**2 :                    8.750000       9.774020

 ENERGY| Total FORCE_EVAL ( QS ) energy (a.u.):             -883.349055303081514


 --------  Informations at step =    12 ------------
  Optimization Method        =                 BFGS
  Total Energy               =      -883.3490553031
  Real energy change         =        -0.0013063188
  Predicted change in energy =        -0.0042397286
  Scaling factor             =         0.8661800676
  Step size                  =         0.1315586205
  Trust radius               =         0.5669178399
  Decrease in energy         =                  YES
  Used time                  =               44.063

  Convergence check :
  Max. step size             =         0.1315586205
  Conv. limit for step size  =         0.1000000000
  Convergence in step size   =                   NO
  RMS step size              =         0.0316397143
  Conv. limit for RMS step   =         0.0100000000
  Convergence in RMS step    =                   NO
  Max. gradient              =         0.0156227117
  Conv. limit for gradients  =         0.1000000000
  Conv. in gradients         =                  YES
  RMS gradient               =         0.0030590532
  Conv. limit for RMS grad.  =         0.0100000000
  Conv. in RMS gradients     =                  YES
 ---------------------------------------------------

 --------------------------
 OPTIMIZATION STEP:     13
 --------------------------

 Spin 1

 Number of electrons:                                                        212
 Number of occupied orbitals:                                                212
 Number of molecular orbitals:                                               212

 Spin 2

 Number of electrons:                                                        207
 Number of occupied orbitals:                                                207
 Number of molecular orbitals:                                               207

 Number of orbital functions:                                               1234
 Number of independent orbital functions:                                   1234

 Extrapolation method: ASPC


 SCF WAVEFUNCTION OPTIMIZATION

  ----------------------------------- OT ---------------------------------------
  Minimizer      : DIIS                : direct inversion
                                         in the iterative subspace
                                         using   7 DIIS vectors
                                         safer DIIS on
  Preconditioner : FULL_SINGLE_INVERSE : inversion of 
                                         H + eS - 2*(Sc)(c^T*H*c+const)(Sc)^T
  Precond_solver : DEFAULT
  stepsize       :    0.08000000                  energy_gap     :    0.08000000
  eps_taylor     :   0.10000E-15                  max_taylor     :             4
  ----------------------------------- OT ---------------------------------------

  Step     Update method      Time    Convergence         Total energy    Change
  ------------------------------------------------------------------------------
     1 OT DIIS     0.80E-01    3.0     0.00064835      -883.3167826453 -8.83E+02
     2 OT DIIS     0.80E-01    3.9     0.00048934      -883.3310752933 -1.43E-02
     3 OT DIIS     0.80E-01    3.9     0.00065743      -883.3391905137 -8.12E-03
     4 OT DIIS     0.80E-01    3.9     0.00029771      -883.3466606694 -7.47E-03
     5 OT DIIS     0.80E-01    3.9     0.00017926      -883.3515442009 -4.88E-03
     6 OT DIIS     0.80E-01    3.9     0.00015056      -883.3526490783 -1.10E-03
[...]
 flops    5 x   32 x   32              1220567040       0.0%    100.0%      0.0%
 flops  114 x   20 x   20              1244424000       0.0%    100.0%      0.0%
 flops   15 x   32 x  109              1400397120       0.0%    100.0%      0.0%
 flops   32 x   15 x  109              1400397120       0.0%    100.0%      0.0%
 flops  111 x   20 x  109              1466398800       0.0%    100.0%      0.0%
 flops  109 x   20 x  111              1466398800       0.0%    100.0%      0.0%
 flops  114 x   20 x  109              1506031200       0.0%    100.0%      0.0%
 flops  109 x   20 x  114              1506031200       0.0%    100.0%      0.0%
 flops    5 x   13 x   20              1539270200       0.0%    100.0%      0.0%
 flops   13 x    5 x   20              1544953800       0.0%    100.0%      0.0%
 flops  109 x   15 x   32              1713375360       0.0%    100.0%      0.0%
 flops  109 x   32 x   15              1713375360       0.0%    100.0%      0.0%
 flops   42 x    5 x   32              1783111680       0.0%    100.0%      0.0%
 flops   20 x   32 x  109              1867196160       0.0%    100.0%      0.0%
 flops   32 x   20 x  109              1867196160       0.0%    100.0%      0.0%
 flops    5 x   42 x   32              1894556160       0.0%    100.0%      0.0%
 flops   13 x   15 x   42              1996672860       0.0%    100.0%      0.0%
 flops   42 x   15 x   13              1996672860       0.0%    100.0%      0.0%
 flops   42 x   32 x   42              2061255168       0.0%    100.0%      0.0%
 flops  109 x   20 x   32              2284500480       0.0%    100.0%      0.0%
 flops  109 x   32 x   20              2284500480       0.0%    100.0%      0.0%
 flops   13 x   20 x   42              2588040000       0.0%    100.0%      0.0%
 flops   42 x   20 x   13              2588040000       0.0%    100.0%      0.0%
 flops    5 x    5 x   32              3844262400       0.0%    100.0%      0.0%
 flops    5 x   15 x   13              4982868150       0.0%    100.0%      0.0%
 flops   13 x   15 x    5              4982868150       0.0%    100.0%      0.0%
 flops  109 x   32 x  109              5529512448       0.0%    100.0%      0.0%
 flops  111 x   15 x  111              5599894500       0.0%    100.0%      0.0%
 flops  111 x   15 x  114              5751243000       0.0%    100.0%      0.0%
 flops  114 x   15 x  111              5751243000       0.0%    100.0%      0.0%
 flops  114 x   15 x  114              5906682000       0.0%    100.0%      0.0%
 flops   32 x   32 x   15              5992980480       0.0%    100.0%      0.0%
 flops   15 x   32 x   32              5992980480       0.0%    100.0%      0.0%
 flops   32 x   15 x   32              5992980480       0.0%    100.0%      0.0%
 flops    5 x   20 x   13              6459941800       0.0%    100.0%      0.0%
 flops   13 x   20 x    5              6459941800       0.0%    100.0%      0.0%
 flops   15 x   32 x  111              7130462400       0.0%    100.0%      0.0%
 flops   32 x   15 x  111              7130462400       0.0%    100.0%      0.0%
 flops   15 x   32 x  114              7323177600       0.0%    100.0%      0.0%
 flops   32 x   15 x  114              7323177600       0.0%    100.0%      0.0%
 flops  111 x   20 x  111              7466526000       0.0%    100.0%      0.0%
 flops   13 x   32 x   32              7597105152       0.0%    100.0%      0.0%
 flops  111 x   20 x  114              7668324000       0.0%    100.0%      0.0%
 flops  114 x   20 x  111              7668324000       0.0%    100.0%      0.0%
 flops  114 x   20 x  114              7875576000       0.0%    100.0%      0.0%
 flops   32 x   32 x   20              8064368640       0.0%    100.0%      0.0%
 flops   20 x   32 x   32              8064368640       0.0%    100.0%      0.0%
 flops   32 x   20 x   32              8064368640       0.0%    100.0%      0.0%
 flops   42 x   32 x    5              8097788160       0.0%    100.0%      0.0%
 flops    5 x   32 x   42              8097788160       0.0%    100.0%      0.0%
 flops  111 x   15 x   32              8724067200       0.0%    100.0%      0.0%
 flops  111 x   32 x   15              8724067200       0.0%    100.0%      0.0%
 flops  114 x   32 x   15              8959852800       0.0%    100.0%      0.0%
 flops  114 x   15 x   32              8959852800       0.0%    100.0%      0.0%
 flops   13 x   13 x   15              9176948430       0.0%    100.0%      0.0%
 flops   20 x   32 x  111              9507283200       0.0%    100.0%      0.0%
 flops   32 x   20 x  111              9507283200       0.0%    100.0%      0.0%
 flops   20 x   32 x  114              9764236800       0.0%    100.0%      0.0%
 flops   32 x   20 x  114              9764236800       0.0%    100.0%      0.0%
 flops   13 x   42 x   32             11300470272       0.0%    100.0%      0.0%
 flops   42 x   13 x   32             11590225920       0.0%    100.0%      0.0%
 flops  111 x   20 x   32             11632089600       0.0%    100.0%      0.0%
 flops  111 x   32 x   20             11632089600       0.0%    100.0%      0.0%
 flops  114 x   32 x   20             11946470400       0.0%    100.0%      0.0%
 flops  114 x   20 x   32             11946470400       0.0%    100.0%      0.0%
 flops   13 x   13 x   20             12235931240       0.0%    100.0%      0.0%
 flops    5 x   32 x    5             14902780800       0.0%    100.0%      0.0%
 flops  111 x   32 x  109             28154856960       0.0%    100.0%      0.0%
 flops  109 x   32 x  111             28154856960       0.0%    100.0%      0.0%
 flops  114 x   32 x  109             28915799040       0.0%    100.0%      0.0%
 flops  109 x   32 x  114             28915799040       0.0%    100.0%      0.0%
 flops    5 x   13 x   32             29553987840       0.0%    100.0%      0.0%
 flops   13 x    5 x   32             29663112960       0.0%    100.0%      0.0%
 flops   32 x   32 x  109             35907760128       0.0%    100.0%      0.0%
 flops   13 x   15 x   13             39786373770       0.0%    100.0%      0.0%
 flops  109 x   32 x   32             43862409216       0.0%    100.0%      0.0%
 flops   42 x   32 x   13             50402596608       0.0%    100.0%      0.0%
 flops   13 x   32 x   42             50402596608       0.0%    100.0%      0.0%
 flops   13 x   20 x   13             51575257760       0.0%    100.0%      0.0%
 flops   13 x   32 x    5            125796153600       0.0%    100.0%      0.0%
 flops    5 x   32 x   13            125796153600       0.0%    100.0%      0.0%
 flops  111 x   32 x  111            143357299200       0.0%    100.0%      0.0%
 flops  114 x   32 x  111            147231820800       0.0%    100.0%      0.0%
 flops  111 x   32 x  114            147231820800       0.0%    100.0%      0.0%
 flops  114 x   32 x  114            151211059200       0.0%    100.0%      0.0%
 flops   32 x   32 x   32            154128089088       0.0%    100.0%      0.0%
 flops   32 x   32 x  111            182833090560       0.0%    100.0%      0.0%
 flops   32 x   32 x  114            187774525440       0.0%    100.0%      0.0%
 flops  111 x   32 x   32            223336120320       0.0%    100.0%      0.0%
 flops  114 x   32 x   32            229372231680       0.0%    100.0%      0.0%
 flops   13 x   13 x   32            234929879808       0.0%    100.0%      0.0%
 flops   13 x   32 x   13           1004388058752       0.0%    100.0%      0.0%
 flops total                         3.931151E+12       0.0%    100.0%      0.0%
 flops max/rank                     63.357922E+09       0.0%    100.0%      0.0%
 matmuls inhomo. stacks                         0       0.0%      0.0%      0.0%
 matmuls total                          251055609       0.0%    100.0%      0.0%
 number of processed stacks              26159077       0.0%    100.0%      0.0%
 average stack size                                     0.0       9.6       0.0
 marketing flops                     4.904145E+12
 -------------------------------------------------------------------------------
 # multiplications                          26745
 max memory usage/rank             390.520832E+06
 # max total images/rank                        1
 # MPI messages exchanged                64722900
 # MPI messages filtered                        0
 MPI messages size (elements):
  total size                       122.656506E+09
  min size                           0.000000E+00
  max size                          12.996000E+03
  average size                       1.895102E+03
 MPI breakdown and total messages size (bytes):
             size <=      128            29505640                        0
       128 < size <=     8192            13392820              95992991120
      8192 < size <=    32768            16675890             447895996480
     32768 < size <=   131072             5148550             437218332480
    131072 < size <=  4194304                   0                        0
   4194304 < size <= 16777216                   0                        0
  16777216 < size                               0                        0
 -------------------------------------------------------------------------------

 MEMORY| Estimated peak process memory [MiB]                                 373

 -------------------------------------------------------------------------------
 -                                                                             -
 -                         MESSAGE PASSING PERFORMANCE                         -
 -                                                                             -
 -------------------------------------------------------------------------------

 ROUTINE             CALLS  TOT TIME [s]  AVE VOLUME [Bytes]  PERFORMANCE [MB/s]
 MP_Group                5         0.000
 MP_Bcast            47279         1.490              63705.             2021.15
 MP_Allreduce       194787        80.016                203.                0.49
 MP_Sync               461         0.185
 MP_Alltoall        122479       322.500            2769262.             1051.71
 MP_ISendRecv       581280         7.171              72192.             5851.81
 MP_Wait           4008204       368.629
 MP_comm_split         457         0.654
 MP_ISend          1802249        14.325              48057.             6046.09
 MP_IRecv          1802249         1.732              47773.            49702.19
 MP_Recv              1350         0.115             159573.             1880.05
 MP_Memory         1085384         0.211
 -------------------------------------------------------------------------------


 -------------------------------------------------------------------------------
 -                                                                             -
 -                           R E F E R E N C E S                               -
 -                                                                             -
 -------------------------------------------------------------------------------
 
 CP2K version 4.1, the CP2K developers group (2016).
 CP2K is freely available from https://www.cp2k.org/ .

 Schuett, Ole; Messmer, Peter; Hutter, Juerg; VandeVondele, Joost. 
 Electronic Structure Calculations on Graphics Processing Units, John Wiley & Sons, Ltd, 173-190 (2016). 
 GPU-Accelerated Sparse Matrix-Matrix Multiplication for Linear Scaling Density Functional Theory.
 http://dx.doi.org/10.1002/9781118670712.ch8


 Borstnik, U; VandeVondele, J; Weber, V; Hutter, J. 
 PARALLEL COMPUTING, 40 (5-6), 47-58 (2014). 
 Sparse matrix multiplication: The distributed block-compressed sparse
 row library.
 http://dx.doi.org/10.1016/j.parco.2014.03.012


 Hutter, J; Iannuzzi, M; Schiffmann, F; VandeVondele, J. 
 WILEY INTERDISCIPLINARY REVIEWS-COMPUTATIONAL MOLECULAR SCIENCE, 4 (1), 15-25 (2014). 
 CP2K: atomistic simulations of condensed matter systems.
 http://dx.doi.org/10.1002/wcms.1159


 VandeVondele, J; Hutter, J. 
 JOURNAL OF CHEMICAL PHYSICS, 127 (11), 114105 (2007). 
 Gaussian basis sets for accurate calculations on molecular systems in
 gas and condensed phases.
 http://dx.doi.org/10.1063/1.2770708


 Krack, M. 
 THEORETICAL CHEMISTRY ACCOUNTS, 114 (1-3), 145-152 (2005). 
 Pseudopotentials for H to Kr optimized for gradient-corrected
 exchange-correlation functionals.
 http://dx.doi.org/10.1007/s00214-005-0655-y


 VandeVondele, J; Krack, M; Mohamed, F; Parrinello, M; Chassaing, T;
 Hutter, J. COMPUTER PHYSICS COMMUNICATIONS, 167 (2), 103-128 (2005). 
 QUICKSTEP: Fast and accurate density functional calculations using a
 mixed Gaussian and plane waves approach.
 http://dx.doi.org/10.1016/j.cpc.2004.12.014


 Frigo, M; Johnson, SG. 
 PROCEEDINGS OF THE IEEE, 93 (2), 216-231 (2005). 
 The design and implementation of FFTW3.
 http://dx.doi.org/10.1109/JPROC.2004.840301


 Kolafa, J. 
 JOURNAL OF COMPUTATIONAL CHEMISTRY, 25 (3), 335-342 (2004). 
 Time-reversible always stable predictor-corrector method for molecular dynamics of polarizable molecules.
 http://dx.doi.org/10.1002/jcc.10385


 VandeVondele, J; Hutter, J. 
 JOURNAL OF CHEMICAL PHYSICS, 118 (10), 4365-4369 (2003). 
 An efficient orbital transformation method for electronic structure
 calculations.
 http://dx.doi.org/10.1063/1.1543154


 Hartwigsen, C; Goedecker, S; Hutter, J. 
 PHYSICAL REVIEW B, 58 (7), 3641-3662 (1998). 
 Relativistic separable dual-space Gaussian pseudopotentials from H to Rn.
 http://dx.doi.org/10.1103/PhysRevB.58.3641


 Lippert, G; Hutter, J; Parrinello, M. 
 MOLECULAR PHYSICS, 92 (3), 477-487 (1997). 
 A hybrid Gaussian and plane wave density functional scheme.
 http://dx.doi.org/10.1080/002689797170220


 Perdew, JP; Burke, K; Ernzerhof, M. 
 PHYSICAL REVIEW LETTERS, 77 (18), 3865-3868 (1996). 
 Generalized gradient approximation made simple.
 http://dx.doi.org/10.1103/PhysRevLett.77.3865


 Goedecker, S; Teter, M; Hutter, J. 
 PHYSICAL REVIEW B, 54 (3), 1703-1710 (1996). 
 Separable dual-space Gaussian pseudopotentials.
 http://dx.doi.org/10.1103/PhysRevB.54.1703


 -------------------------------------------------------------------------------
 -                                                                             -
 -                                T I M I N G                                  -
 -                                                                             -
 -------------------------------------------------------------------------------
 SUBROUTINE                       CALLS  ASD         SELF TIME        TOTAL TIME
                                MAXIMUM       AVERAGE  MAXIMUM  AVERAGE  MAXIMUM
 CP2K                                 1  1.0    0.085    0.098 2615.786 2615.787
 cp_geo_opt                           1  2.0    0.001    0.002 2612.244 2612.246
 geoopt_bfgs                          1  3.0    0.010    0.014 2612.243 2612.246
 cp_eval_at                          43  4.0    0.008    0.013 2609.678 2609.707
 qs_forces                           42  5.0    0.005    0.006 2566.685 2566.686
 qs_energies                         43  6.0    0.002    0.003 2466.996 2467.057
 scf_env_do_scf                      43  7.0    0.002    0.002 2393.547 2393.649
 scf_env_do_scf_inner_loop          563  8.0    0.022    0.048 2232.654 2232.858
 rebuild_ks_matrix                  605  9.8    0.003    0.004 1721.461 1721.792
 qs_ks_build_kohn_sham_matrix       605 10.8    0.139    0.184 1721.458 1721.790
 qs_ks_update_qs_env                606  9.0    0.012    0.017 1594.222 1594.550
 pw_transfer                      21228 13.6    2.113    2.565 1285.283 1400.605
 fft_wrap_pw1pw2                  20018 14.6    0.299    0.349 1274.143 1394.146
 fft_wrap_pw1pw2_250              12752 15.7  118.051  134.149 1224.174 1324.528
 fft3d_ps                         20018 16.6  475.479  513.099  964.064 1181.358
 qs_vxc_create                      605 11.8    0.023    0.034 1076.960 1084.975
 xc_vxc_pw_create                   605 12.8   16.507   27.220 1076.937 1084.954
 mp_alltoall_z22v                 20018 18.6  357.566  709.293  357.566  709.293
 rs_pw_transfer                    9773 13.4    0.194    0.258  679.668  701.236
 qs_rho_update_rho                  606  9.1    0.008    0.014  639.658  639.732
 calculate_rho_elec                1212 10.1   13.646   26.394  639.650  639.726
 density_rs2pw                     1212 11.1    0.066    0.078  570.887  585.671
 xc_rho_set_and_dset_create         605 13.8   13.869   15.872  490.930  536.013
 sum_up_and_integrate               605 11.8    4.303    4.722  527.347  529.306
 integrate_v_rspace                1210 12.8    9.517   26.699  523.037  527.104
 potential_pw2rs                   1210 13.8    0.149    0.176  494.619  500.121
 yz_to_x                           7307 17.3   50.122   62.108  243.148  418.682
 mp_waitany                      625813 15.4  253.149  413.374  253.149  413.374
 x_to_yz                           7867 18.0   68.388   77.489  230.263  368.698
 rs_pw_transfer_PW2RS_250          1252 15.6  106.175  125.499  227.431  250.647
 rs_pw_transfer_RS2PW_250          1255 13.0  101.820  126.299  222.739  246.442
 mp_waitall_1                   3382391 17.0  156.912  198.182  156.912  198.182
 qs_scf_new_mos                     563  9.0    0.003    0.009  168.690  168.962
 qs_scf_loop_do_ot                  563 10.0    0.002    0.003  168.687  168.959
 ot_scf_mini                        563 11.0    0.021    0.030  162.237  162.451
 init_scf_loop                       43  8.0    0.002    0.003  160.543  160.634
 dbcsr_multiply_generic           26745 14.0    0.368    0.386  151.334  152.940
 qs_ks_update_qs_env_forces          42  6.0    0.000    0.001  129.016  129.044
 pw_scatter_p                     10287 17.2  102.492  114.222  102.492  114.222
 rs_pw_transfer_PW2RS_90           1210 15.8   14.357   17.324   60.609  104.573
 pw_derive                         7260 14.3   89.125   99.738   89.125   99.738
 ot_mini                            563 12.0    0.003    0.005   99.003   99.389
 xc_functional_eval                 605 14.8    0.010    0.026   55.354   98.293
 pbe_lsd_eval                       605 15.8   55.344   98.284   55.344   98.284
 pw_gather_p                       9731 16.0   86.122   91.301   86.122   91.301
 qs_ot_get_derivative              1126 13.0    0.009    0.011   83.435   83.690
 rs_grid_zero                      7353 12.9   72.477   78.461   72.477   78.461
 multiply_cannon                  26745 15.0    1.767    2.005   55.048   62.209
 mp_sum_d                         41489 14.6   24.379   60.589   24.379   60.589
 rs_pw_transfer_PW2RS_30           1210 15.8    9.685   14.884   55.193   59.519
 pw_axpy                          13361 13.0   50.543   58.634   50.543   58.634
 pw_copy                          11538 14.5   50.099   54.954   50.099   54.954
 init_scf_run                        43  7.0    0.001    0.005   53.964   54.015
 scf_env_initial_rho_setup           43  8.0    0.001    0.005   53.962   54.013
 fft_wrap_pw1pw2_90                2422 15.4    2.427    3.377   31.828   53.361
 rs_pw_transfer_RS2PW_30           1212 13.1   10.115   14.908   50.053   53.098
 wfi_extrapolate                     43  9.0    0.003    0.005   52.496   52.508
 -------------------------------------------------------------------------------

 The number of warnings for this run is : 1
 
 -------------------------------------------------------------------------------
  **** **** ******  **  PROGRAM ENDED AT                 2023-04-08 04:47:11.971
 ***** ** ***  *** **   PROGRAM RAN ON            node145.pri.kelvin2.alces.netw
 **    ****   ******    PROGRAM RAN BY                                  40265864
 ***** **    ** ** **   PROGRAM PROCESS ID                                 96561
  **** **  *******  **  PROGRAM STOPPED IN /mnt/scratch2/users/40265864/MSc_ML_M
                                           M/ln_replacements/xyz/Dy_L10_L19_L21/
                                           geometry_optimisation_2/run-6
