     445
 i =        1, E =     -1508.6581358262
  C         0.7440062316        1.6798149736        2.3277353957
  C        -0.0029316013        0.7229523018        1.3286553799
  C         0.7903455004        0.5523606507       -0.0110134684
  C         0.0681623950       -0.4376925309       -0.9940982947
  C         0.9662187895       -0.6506953269       -2.2664841644
  C         0.3123151494       -1.6367318827       -3.3006576995
  C         1.2657527740       -1.8442628640       -4.5367022950
  C         0.6463679981       -2.8623763735       -5.5645504554
  C         1.6063147859       -3.1314310390       -6.7865483219
  C         1.0465532724       -4.3220671752       -7.6605131652
  C         1.7511092424       -4.4148550091       -9.0630428703
  C         1.1764274623       -5.5438976940      -10.0105768245
  O         1.7289986946       -5.1549489408      -11.3751639663
  C         1.0547805925       -6.2408015888      -12.2021435672
  C         1.8938418476       -6.1909573252      -13.5443168576
  O         3.3052963987       -6.5946249325      -13.2002526828
  C         3.9787404404       -6.5370279703      -14.4612574376
  C         3.8779124249       -7.6811222178      -15.3702471850
  C         4.6122690727       -7.5137210735      -16.5968198500
  C         5.3317004391       -6.3075174986      -16.8863642292
  C         5.5164849188       -5.1727490925      -16.0272025608
  C         4.8183385284       -5.3380877069      -14.7617742543
  O         4.9613187887       -4.2404239636      -13.8638759041
  C         6.0087749419       -4.7508793653      -12.9080971577
  C         6.4542630578       -3.4817127183      -12.0669330327
  O         5.2880297410       -2.9659492271      -11.2612159317
  C         4.7346829545       -1.9064584208      -12.1930268911
  C         3.2747152231       -1.6624552314      -11.6399166229
  C         2.2931654004       -1.1597279688      -12.7519422308
  C         0.8304949312       -1.0595761944      -12.1912992608
  C        -0.1766372879       -0.8128320530      -13.3722495069
  C        -1.6332951719       -0.6359178888      -12.8211855194
  C        -2.6671931630       -0.4101721437      -13.9790496591
  C        -4.1020493192       -0.2110104059      -13.3799379566
  C        -5.1413046382        0.1162450702      -14.5052055020
  C        -6.5518829399        0.3845295845      -13.8812250244
  C        -7.5869128015        0.8209650606      -14.9726927056
  C        -9.0085264137        1.1523102104      -14.3703518567
  C         7.4905967409       -4.0117501445      -10.9952577213
  C         6.0265705848       -6.5481161895      -18.1338718357
  N         6.7594803226       -5.5400000000      -18.7015489000
  C         7.4428390403       -5.9271610809      -19.8358305221
  N         7.6991214123       -7.2304184489      -20.3520845933
 Gd         6.5522586899       -9.1443469376      -20.2674242512
  N         5.8332345269       -7.8762439699      -18.5386157843
  C         4.7880660289       -8.4192475556      -17.7466861003
  N         4.5828265650       -9.7771779090      -17.4653939694
  C         5.6826444436      -10.6313037614      -17.5920701265
  C         6.1729490125      -11.2186701830      -16.3226391024
  C         5.4472510765      -11.4795899654      -15.1146756151
  C         6.2494564345      -12.1165952942      -14.0850037889
  O         5.5355737516      -12.6711190113      -12.9896503902
  C         5.5534734297      -11.6301191948      -11.9201617670
  C         4.8411952967      -12.3404872182      -10.6908345068
  O         5.7820496669      -13.1783042597       -9.8604262792
  C         5.8791810437      -14.4371473229      -10.7051237084
  C         6.8348349731      -15.3750219024       -9.8672804910
  C         7.2989785082      -16.6238113356      -10.7019751430
  C         8.4969798148      -17.3890207945      -10.0268990159
  C         9.0735749105      -18.4518692121      -11.0314141231
  C        10.3301879526      -19.1987176483      -10.4596368330
  C        10.9126427995      -20.1759080876      -11.5418868723
  C        12.1439018155      -20.9772797016      -10.9935672981
  C        12.6770423099      -21.9650141117      -12.0903778793
  C        13.8488520886      -22.8313582967      -11.5188817187
  C        14.3484615598      -23.8653002865      -12.5825903548
  C        15.4709658801      -24.7956109911      -11.9980764315
  C         4.4180810167      -11.1627257385       -9.7259998609
  C         7.7304111807      -12.2676726922      -14.1875264333
  C         8.4561302475      -12.0759637510      -15.4482762270
  C         7.5686707636      -11.5464308330      -16.4532949139
  C         7.9313257064      -11.0703487533      -17.7857781358
  N         9.2233714858      -11.2258154295      -18.2183203846
  C         9.5061370948      -10.5264945584      -19.3691898314
  N         8.7816788414       -9.5760307140      -20.1028087639
  C         9.5991943593       -9.2153827877      -21.2162597042
  N         9.6052908649       -7.9903129699      -21.8397094049
  C         8.6684187363       -7.0702596976      -21.4043031070
  C         9.1222026139       -5.6785301803      -21.4022615948
  C         8.3718683359       -4.9656927025      -20.4122927138
  C         8.6835072995       -3.6665273994      -19.8907035060
  C         9.8782467781       -3.1140010193      -20.5137625138
  O        10.2716797106       -1.8544061345      -19.9800883560
  C        11.5037905508       -2.2111524147      -19.1879174527
  C        12.0369592225       -0.8496974731      -18.5624245289
  O        12.7749111290        0.0575808440      -19.5169832162
  C        11.6213836040        0.5296069919      -20.3776881457
  C        12.1588144327        1.7280954800      -21.2453479039
  C        10.9947397138        2.2683099699      -22.1592598312
  C        11.4859136777        2.9030201656      -23.5107784751
  C        10.2339872943        3.1423576568      -24.4265741012
  C        10.5846944321        3.7595067425      -25.8242875844
  C         9.2686944157        3.8358632502      -26.6745411648
  C         9.4765511537        4.5446559230      -28.0556507849
  C         8.1003346780        4.6103601969      -28.8033417039
  C         8.2217386095        5.3947698482      -30.1506142647
  C         6.8166007050        5.5117226705      -30.8290987682
  C         6.8767743497        6.3537065100      -32.1522240835
  C        13.1462363840       -1.2507483040      -17.5077559841
  C        10.5992887163       -3.7913563835      -21.6315408656
  C        10.2332292409       -5.1180855848      -22.1078722415
  O        11.7738126124       -3.2102778760      -22.1843726188
  C        11.3097997331       -2.4618913484      -23.3967231068
  C        12.6439138651       -2.0591252276      -24.1578004516
  O        13.4252997299       -1.0563263851      -23.3411966785
  C        14.3869920587       -1.9701562994      -22.6084925757
  C        15.2829394671       -0.9612361283      -21.7983034186
  C        16.1411275543       -1.6612701692      -20.6832857046
  C        16.4574955377       -0.6623572076      -19.5121595926
  C        17.0673780078       -1.4413522053      -18.2957582527
  C        17.2767554582       -0.5006906504      -17.0564243956
  C        17.5427584367       -1.3676454933      -15.7765180488
  C        18.0667123574       -0.4995704784      -14.5808675256
  C        18.4010150550       -1.4407538781      -13.3705701426
  C        19.3209683147       -0.7204179254      -12.3290835277
  C        19.6692644439       -1.7045409155      -11.1624689125
  C        20.7038803545       -1.0839488373      -10.1570473396
  C        12.1939668580       -1.2612007649      -25.4424128425
  C        10.9151054474       -9.8379057246      -21.0396902009
  C        10.8767046485      -10.5883316739      -19.8251223794
  C        12.0012491552      -11.0504038171      -19.0650104403
  C        13.2573203304      -10.7256740773      -19.7236691979
  C        13.3079247246      -10.1288143035      -21.0919160650
  C        12.1201109603       -9.6378327688      -21.7876222987
  O        14.5519764301       -9.8224649795      -21.7164148669
  C        15.0277589993      -11.1233797556      -22.2981366466
  C        16.4438468703      -10.7868504741      -22.9315530726
  O        17.4430209633      -10.6161821895      -21.8123283940
  C        17.5303481462       -9.1099912311      -21.7178499711
  C        18.7066615864       -8.8498519649      -20.7031216993
  C        18.7294173967       -7.3524891770      -20.2382909188
  C        19.9545010804       -7.0523805721      -19.2997699439
  C        19.7976539885       -5.6094696749      -18.7006070289
  C        21.0145539556       -5.1676161916      -17.8115377368
  C        20.7824638471       -3.6890542557      -17.3329568985
  C        21.9169854702       -3.1717777807      -16.3784811594
  C        21.6902877270       -1.6401657271      -16.1060828286
  C        22.7367759111       -1.0745538265      -15.0835215125
  C        22.5826282481        0.4799672435      -14.9498416483
  C        23.5925490658        1.0776195490      -13.9028273842
  C        16.9207103789      -12.0669447535      -23.7177203041
  O        14.4247587460      -11.0424803614      -18.9715382062
  C        14.8421373894       -9.6890588047      -18.4467746833
  C        15.9623143722       -9.9755023666      -17.3525300788
  O        17.3179465884      -10.4059384406      -17.8484328884
  C        16.9588605829      -11.7860725962      -18.3525454854
  C        18.3191533377      -12.5597011439      -18.5051383079
  C        18.0889356689      -14.0333085579      -19.0244697850
  C        18.9815210595      -14.4074418045      -20.2614720089
  C        18.4415440625      -15.7281774069      -20.9137314563
  C        19.3513259211      -16.2190722345      -22.0918190299
  C        18.6765727392      -17.4445126953      -22.8017553273
  C        19.6115811801      -18.0709190409      -23.8911932256
  C        18.8880897541      -19.2814698659      -24.5765759817
  C        19.8349470088      -19.9803136143      -25.6085337558
  C        19.1103687873      -21.1940896500      -26.2790766568
  C        20.0647640290      -21.9675300121      -27.2511976504
  C        16.2772022990       -8.5799115671      -16.6751787299
  N         6.8536166431      -10.3763590427      -18.3859600617
  O         8.3850853359      -12.4783665643      -12.9435836958
  C         9.3677700349      -13.6048387032      -13.0820887899
  C        10.3929060576      -13.3422902212      -11.8906985179
  O         9.6456777332      -13.3226797571      -10.5823041105
  C         9.5897921201      -11.8376489461      -10.2873464013
  C         8.7044458687      -11.7833061451       -8.9870012909
  C         8.2801487067      -10.3320673070       -8.5648980026
  C         7.4034417143      -10.4026522416       -7.2585991281
  C         6.7134623571       -9.0235091217       -6.9488908369
  C         5.7907920052       -9.1525288265       -5.6817834813
  C         4.9741074782       -7.8372787167       -5.4257038653
  C         4.0651517513       -7.9738456393       -4.1520228155
  C         3.2121901776       -6.6724179707       -3.9518026049
  C         2.3902878906       -6.7354713946       -2.6202204747
  C         1.4866756975       -5.4641723780       -2.4689896435
  C         0.8256133007       -5.4104754266       -1.0467630865
  C        11.3422659411      -14.6045767935      -11.8227079880
  O         4.3871602648       -8.4589583592      -20.6932246439
  O         5.0848554077      -10.9305856829      -20.4311201012
  O         6.2541426445       -8.3150131967      -22.3894848363
  O         7.1832028535      -10.7586013556      -21.8152166198
  C        -0.4343294002       -5.9025448399      -12.6339872096
  H         0.4721277832        1.3535904439        3.4346544424
  H         1.9121749920        1.6078444946        2.1671248016
  H         0.3777390375        2.7930290653        2.1702452770
  H        -0.0946447086       -0.3334399914        1.8450697604
  H        -1.0503734579        1.2111532113        1.0870524409
  H         0.8435643832        1.6141410197       -0.5202409124
  H         1.8416933260        0.1005061415        0.2698290349
  H        -0.0619144904       -1.4731551804       -0.4433039341
  H        -0.9502654793        0.0566423703       -1.3266312438
  H         1.0966932114        0.4009635763       -2.7843563814
  H         1.9828384640       -1.1240314572       -1.9027137792
  H         0.1610920037       -2.6789046677       -2.7695058086
  H        -0.6868285675       -1.1391310352       -3.6845856786
  H         1.3965903273       -0.7991036474       -5.0698275873
  H         2.2766657902       -2.2979542313       -4.1330743663
  H         0.4703724897       -3.8779396690       -4.9919408622
  H        -0.3398651217       -2.3707251175       -5.9867728351
  H         1.6389397926       -2.1557501429       -7.4489157885
  H         2.6567127272       -3.4415523225       -6.3464588185
  H         1.2765007310       -5.3166694396       -7.0708968985
  H        -0.0996866293       -4.1193020018       -7.8404639336
  H         1.5727471851       -3.3947025237       -9.6289181775
  H         2.8952184932       -4.6404669192       -8.8806912371
  H         1.5825740915       -6.5829920408       -9.5598929479
  H        -0.0161660093       -5.4986485657       -9.9031954326
  H         1.0652604105       -7.3812525054      -11.8383763732
  H         1.4171927076       -6.8920251164      -14.3922061537
  H         1.8995978200       -5.0553754021      -13.9328215557
  H         3.2885642589       -8.6860429422      -15.1792500177
  H         6.1380813208       -4.2290899657      -16.3792874722
  H         5.5410905551       -5.5610989882      -12.1620999423
  H         6.9548696225       -5.2008613724      -13.4890032728
  H         7.0137283393       -2.7537292096      -12.8252997523
  H         5.3232235370       -0.8682550675      -12.0522541066
  H         4.6550315789       -2.1995812172      -13.3469830156
  H         2.9144298409       -2.7202589038      -11.2565048339
  H         3.3311392285       -0.8564123610      -10.7801061008
  H         2.6355586734       -0.0777137958      -13.0683402526
  H         2.3013130618       -1.9544869303      -13.6196699838
  H         0.5478001849       -2.0820586360      -11.6772948111
  H         0.7664913918       -0.1286895573      -11.4695207826
  H         0.1211917707        0.1846393763      -13.9268666642
  H        -0.1729340649       -1.7620298354      -14.0717963604
  H        -1.9437383753       -1.6222685032      -12.2543894051
  H        -1.6573170545        0.3241076179      -12.1366329317
  H        -2.3783345279        0.5735904837      -14.5621115304
  H        -2.6894617559       -1.3726339703      -14.6609090712
  H        -4.4326270938       -1.2187414933      -12.8642410464
  H        -4.0696480131        0.7065419135      -12.6399884276
  H        -4.7997288445        1.0999361628      -15.0578730990
  H        -5.2357375511       -0.8214257731      -15.2140532815
  H        -6.9552382395       -0.6143446396      -13.4018353856
  H        -6.4640774179        1.2746276878      -13.1134450177
  H        -7.1486406913        1.7829917484      -15.5012933893
  H        -7.6981815994       -0.0755008847      -15.7338596030
  H        -8.9174288774        1.1487309761      -13.1922234539
  H        -9.3136302000        2.2303862975      -14.7519000195
  H        -9.8173242980        0.3674687907      -14.7356720859
  H         7.5300330089       -5.1903681564      -10.9173419765
  H         8.5714528498       -3.5758468469      -11.2029218137
  H         7.1230971895       -3.5802748427       -9.9498441868
  H         4.2868331322      -11.2889031920      -15.0494479761
  H         6.6674466096      -11.3119077449      -11.6158245382
  H         4.9377777515      -10.6664250011      -12.2886470264
  H         3.8808887444      -12.8427165772      -11.2013266770
  H         4.8481429603      -15.0366988894      -10.8362602257
  H         6.4064888695      -14.2542688312      -11.7610733058
  H         7.7898611349      -14.7403353353       -9.5867422445
  H         6.2366314651      -15.7703680482       -8.9285906749
  H         6.3981097532      -17.3838272073      -10.7644237191
  H         7.6743652038      -16.2455590526      -11.7515755106
  H         9.3536742868      -16.6182425983       -9.7781155004
  H         8.0972988912      -17.9738373904       -9.0818415451
  H         8.2427201091      -19.2657581390      -11.2321276475
  H         9.4140559137      -17.8851674749      -12.0071208570
  H        11.1586262148      -18.3994596433      -10.2034056236
  H         9.9949934772      -19.8439162034       -9.5303180852
  H        10.0742999330      -20.9553779675      -11.8255572106
  H        11.2831669462      -19.5315591295      -12.4573243363
  H        13.0064693059      -20.2134011740      -10.7412513265
  H        11.7913678043      -21.6170452717      -10.0677146938
  H        11.8036422588      -22.6962614981      -12.3942685068
  H        13.1064177165      -21.3333835113      -12.9887844849
  H        14.7603166542      -22.1292488213      -11.2623265389
  H        13.4516129493      -23.4546860693      -10.6009991053
  H        13.4383835471      -24.5454150602      -12.8988932721
  H        14.8100901713      -23.2730186568      -13.4936240871
  H        15.4329700602      -24.7726202614      -10.8177651522
  H        15.2936767873      -25.9002794289      -12.3856826812
  H        16.5293188215      -24.4312180233      -12.3777454531
  H         4.5800569589      -11.6019263053       -8.6363315136
  H         5.0865852086      -10.1979237567       -9.8566894864
  H         3.2702718520      -10.9050155761       -9.8594581175
  H         9.6050485525      -12.2268925497      -15.6957609253
  H         8.0128304612       -3.1474403154      -19.0675541498
  H        11.2087127558       -2.9629504302      -18.2974946203
  H        12.3680341133       -2.6984231389      -19.8564745324
  H        11.0786240260       -0.3987420138      -18.0077206124
  H        11.2958712450       -0.3129061943      -21.1562926020
  H        10.6804884588        0.9471847349      -19.7683147823
  H        12.4747146750        2.6037458904      -20.5185797444
  H        13.0282055630        1.3413778050      -21.9411000176
  H        10.2910671833        1.3670070541      -22.4402877118
  H        10.4281210397        3.1252600763      -21.5773773202
  H        11.9824029809        3.9518480035      -23.2926348510
  H        12.2013317254        2.1386670057      -24.0526679958
  H         9.7259109841        2.0972348424      -24.6238952673
  H         9.5181554235        3.9034473741      -23.8789418026
  H        10.9861060445        4.8574728956      -25.6674739187
  H        11.3442986175        3.0468016366      -26.3776612506
  H         8.9134410503        2.7331558142      -26.8946033014
  H         8.4763183545        4.4648992890      -26.0690886642
  H         9.8433048715        5.6484977681      -27.8615397461
  H        10.2202566215        3.9006611103      -28.7060352231
  H         7.7653537888        3.5099180316      -29.0631769266
  H         7.3321630747        5.1872696873      -28.1201660692
  H         8.5872535000        6.4916878646      -29.9225209567
  H         8.9214710416        4.7955463163      -30.8860051851
  H         6.4467113771        4.4259472284      -31.1079313224
  H         6.0870191988        6.0572375092      -30.0797580546
  H         6.8986206625        5.6275564337      -33.0846447568
  H         5.9015228959        7.0219150207      -32.2200681258
  H         7.8374745221        7.0400965459      -32.1443798417
  H        12.7433328880       -1.1220459825      -16.4013267009
  H        13.5611212563       -2.3461937235      -17.6619414922
  H        14.0359732038       -0.4822296235      -17.6662222355
  H        10.7753079565       -5.7481587346      -22.9452862626
  H        10.6102594768       -3.1248382738      -24.1134319353
  H        10.7242374563       -1.4711780665      -23.0635810968
  H        13.1385358315       -3.0998125305      -24.4616579759
  H        13.8390467316       -2.6826348065      -21.8213432978
  H        15.1155395515       -2.5995011011      -23.3241155914
  H        16.0244459672       -0.4538816712      -22.5643258005
  H        14.5463019568       -0.2020231445      -21.2760033931
  H        15.5222834451       -2.5558170138      -20.2347094072
  H        17.1720398860       -1.9862031772      -21.1574595401
  H        17.2663911902        0.1132312999      -19.8846657034
  H        15.4476310936       -0.1686026511      -19.1628624935
  H        16.3100570440       -2.2873767159      -17.9831024849
  H        18.1294090489       -1.8532086679      -18.6061466242
  H        18.2305849530        0.1677186624      -17.2447355317
  H        16.2898922808        0.1238088715      -16.8935747242
  H        16.5116366305       -1.8393388640      -15.4518503234
  H        18.3734372424       -2.1608568016      -16.0366039427
  H        19.0563568060        0.0448369274      -14.9150909633
  H        17.2063438478        0.2335504943      -14.2402636474
  H        17.3965596461       -1.7218214529      -12.8185634740
  H        18.9912963479       -2.3752577958      -13.7777757584
  H        20.3319074355       -0.4158171613      -12.8518683103
  H        18.7314229563        0.1820340650      -11.8502344318
  H        18.6807254609       -1.9410261545      -10.5636256484
  H        20.1543868962       -2.6735457811      -11.6284819857
  H        20.3489709198       -1.3125434869       -9.0507849139
  H        21.7610528083       -1.5885162130      -10.3173491921
  H        20.7759097873        0.0827667149      -10.3223981968
  H        11.9690302533       -1.9778334966      -26.3570602936
  H        11.2709380277       -0.5537769815      -25.2232183993
  H        13.1270649492       -0.5783802429      -25.7159612807
  H        11.8638741155      -11.6048438750      -18.0281937544
  H        12.0832283109       -9.1170459349      -22.8459797768
  H        15.1566795091      -11.9623727779      -21.4556863111
  H        14.2764646538      -11.4946113808      -23.1567601591
  H        16.2267826526       -9.8956410421      -23.6922696704
  H        17.8114346343       -8.5599909341      -22.7439714742
  H        16.5309486075       -8.6567936662      -21.2416605467
  H        18.5081615634       -9.5331720173      -19.7600925017
  H        19.7207473888       -9.0778569554      -21.2623889951
  H        18.8434684051       -6.6677523352      -21.1913616572
  H        17.7525276589       -7.1485804600      -19.6126412407
  H        19.9590235853       -7.8248773657      -18.4086090811
  H        20.9434656327       -7.0680848004      -19.9438968628
  H        19.7168811466       -4.8467035073      -19.5964499941
  H        18.8430324614       -5.6109111489      -18.0083145089
  H        21.0638682836       -5.8683097554      -16.8634784790
  H        21.9898312148       -5.1999254166      -18.4751139330
  H        20.7832487423       -3.0027778948      -18.2908376011
  H        19.7673408170       -3.6598134948      -16.7347294838
  H        21.8324835095       -3.7446788530      -15.3506931633
  H        22.9581081163       -3.3090766525      -16.9164054095
  H        21.8547915949       -1.0655454112      -17.1229395612
  H        20.6177661201       -1.4936532761      -15.6389475563
  H        22.5238169792       -1.5364831991      -14.0202302430
  H        23.8280342168       -1.2784738791      -15.4830602845
  H        22.8401923932        0.9630516758      -15.9968845057
  H        21.4752013571        0.7139467911      -14.6076055665
  H        23.1643558148        0.8507037606      -12.8192451506
  H        24.7003737242        0.6646931360      -14.0597523688
  H        23.5779995933        2.2586026339      -14.0417837630
  H        17.3203525120      -12.8608880951      -22.9316214307
  H        16.0870541262      -12.5458925706      -24.4072149234
  H        17.8422330780      -11.7228730581      -24.3816574786
  H        15.3024143383       -9.0079082699      -19.3150583681
  H        13.9179084190       -9.1315538320      -17.9224854465
  H        15.4136258241      -10.6878296701      -16.5648919050
  H        16.2824577217      -12.4516466979      -17.6235887999
  H        16.5014167202      -11.7567238669      -19.4567932503
  H        18.9971092524      -11.9911425542      -19.2842623291
  H        18.8075844005      -12.6332300616      -17.4322622168
  H        18.3906936683      -14.7774293962      -18.1585558545
  H        16.9624829812      -14.1415575059      -19.3479716674
  H        18.8932531487      -13.5393407939      -21.0529074124
  H        20.0840534696      -14.6083113971      -19.8909697267
  H        18.4364365227      -16.5744738322      -20.0922918597
  H        17.3726432824      -15.5057504961      -21.3583769166
  H        19.4540465568      -15.3473203825      -22.8794286110
  H        20.3824934679      -16.5784416557      -21.6459089086
  H        18.4648708562      -18.2724634677      -21.9893365649
  H        17.7016262532      -17.0622445694      -23.3439046270
  H        19.8275413531      -17.2562210307      -24.7161166555
  H        20.5825200061      -18.4771251749      -23.3592528743
  H        18.6159137751      -20.0718847834      -23.7452788314
  H        17.9528653625      -18.8708103358      -25.1657713873
  H        20.0963225884      -19.2152512542      -26.4663356980
  H        20.7753482832      -20.4036463326      -25.0380629392
  H        18.7730070317      -21.9453373590      -25.4326643319
  H        18.2044633335      -20.7850030997      -26.9156191027
  H        20.8306672161      -22.6136837730      -26.6246760129
  H        19.4075436328      -22.6902184069      -27.9232629614
  H        20.6405829313      -21.1990066100      -27.9396678206
  H        16.2778224577       -8.6957049532      -15.4960295100
  H        17.3885290149       -8.3008088852      -16.9918349596
  H        15.5587292073       -7.6979289364      -16.9935549620
  H         8.7744356717      -14.6205348248      -12.8505088150
  H         9.9312474082      -13.6636319562      -14.1361795365
  H        11.0153268283      -12.3883525872      -12.2346963152
  H        10.6641067307      -11.3849403934      -10.0047203004
  H         9.0545935813      -11.1848282399      -11.1323687849
  H         7.7285645279      -12.4029130435       -9.2307188667
  H         9.3456396268      -12.2473291859       -8.1111756408
  H         9.2557983766       -9.7159485160       -8.3194067782
  H         7.6154847366       -9.8785513874       -9.4246972758
  H         6.5550383856      -11.2040652566       -7.4211402236
  H         8.1182935586      -10.6493669194       -6.3517072232
  H         7.5489411077       -8.2275501964       -6.7017374274
  H         6.0305777475       -8.7368676637       -7.8658403994
  H         5.0147078639      -10.0201132145       -5.8699499213
  H         6.4726564428       -9.3314299820       -4.7356777056
  H         5.7295865545       -6.9537213970       -5.2252517769
  H         4.2629918595       -7.6511942309       -6.3477356382
  H         3.3223815809       -8.8767068333       -4.3127775041
  H         4.7583165929       -8.1071952627       -3.2062458972
  H         3.9520327202       -5.7583544822       -3.8706633804
  H         2.4470321102       -6.5920916876       -4.8449269925
  H         1.6726812770       -7.6702621240       -2.6599872766
  H         3.1385026817       -6.7491519641       -1.7092346931
  H         2.1601364127       -4.5039360320       -2.5909541459
  H         0.6194091239       -5.5231714918       -3.2658412437
  H         0.6294852266       -6.5065986414       -0.6511848713
  H         1.5356721311       -4.8331728911       -0.2987999024
  H        -0.2020810881       -4.8263743460       -1.1250796693
  H        11.5021073380      -14.7974967885      -10.6604923217
  H        10.8641205002      -15.5731616030      -12.3023372191
  H        12.3973709548      -14.3658497452      -12.3034463170
  H         4.1804043274       -7.4212458038      -20.6647506460
  H         3.5637089874       -9.1119753401      -20.7053555791
  H         4.0395709248      -10.8298507063      -20.2875113959
  H         5.4690508256      -11.9133651612      -20.2804074619
  H         5.2755345702       -8.1439253268      -22.7355718128
  H         7.0976760305       -8.1307942378      -22.9924297725
  H         6.4597381367      -11.4020318750      -22.2318826182
  H         8.1701160772      -10.7407918894      -22.1864282339
  H        -1.0534295355       -5.7649791811      -11.6342951564
  H        -0.4880221165       -4.8989765162      -13.2602585195
  H        -0.9407751809       -6.7771497207      -13.2561472644
     445
 i =        2, E =     -1509.0840745040
  C         0.7507148248        1.6912311798        2.3403216120
  C        -0.0086048751        0.7238011579        1.3402901584
  C         0.7852548372        0.5549419932       -0.0039686165
  C         0.0740014017       -0.4340019105       -0.9960264249
  C         0.9657355632       -0.6568083179       -2.2708073519
  C         0.3134529913       -1.6435071164       -3.3050563348
  C         1.2687997358       -1.8518159258       -4.5392538656
  C         0.6444962799       -2.8667711664       -5.5653949700
  C         1.6058361841       -3.1334411613       -6.7855951136
  C         1.0254565637       -4.3313089088       -7.6347173116
  C         1.7965947710       -4.3248416911       -9.0077894749
  C         1.1939444960       -5.4770492621       -9.8952850042
  O         1.6429064348       -5.2748863478      -11.3443489870
  C         1.0379248949       -6.2680495577      -12.3256102769
  C         1.9283844117       -6.1955642217      -13.6092891659